/*--------------------------------*- C++ -*----------------------------------*\
| =========                 |                                                 |
| \\      /  F ield         | OpenFOAM: The Open Source CFD Toolbox           |
|  \\    /   O peration     | Version:  dev                                   |
|   \\  /    A nd           | Web:      www.OpenFOAM.org                      |
|    \\/     M anipulation  |                                                 |
\*---------------------------------------------------------------------------*/
FoamFile
{
    version     2.2;
    format      ascii;
    class       volScalarField;
    location    "0";
    object      Exnerp;
}
// * * * * * * * * * * * * * * * * * * * * * * * * * * * * * * * * * * * * * //

dimensions      [0 0 0 0 0 0 0];

internalField   uniform 0;

boundaryField
{
    ground
    {
        type            codedMixed;
        refValue        uniform 0;
        valueFraction   uniform 0;
        refGradient     uniform 0;
        name            hydroStatic;
        codeInclude
        #{
            #include "specie.H"
            #include "perfectGas.H"
            #include "hConstThermo.H"
            #include "constTransport.H"
        #};
        codeOptions
        #{
            -I$(LIB_SRC)/thermophysicalModels/specie/lnInclude
        #};
        codeLibs
        #{
        #};
        code
        #{
            const dictionary& environmentalProperties
                = db().lookupObject<IOdictionary>("environmentalProperties");

            const dictionary& thermoProperties
                = db().lookupObject<IOdictionary>("physicalProperties");
            
            dimensionedVector g(environmentalProperties.lookup("g"));

            const constTransport<hConstThermo<perfectGas<specie> > > air
            (
                 "mixture", thermoProperties
            );

            const dimensionedScalar Cp("Cp", dimGasConstant, air.Cp(0,0));

            const fvsPatchField<scalar>& thetapf
                 = patch().lookupPatchField<surfaceScalarField, scalar>("thetapf");
            const fvPatchField<scalar>& thetaa
                 = patch().lookupPatchField<volScalarField, scalar>("thetaa");
            const fvsPatchField<scalar>& thetaf
                 = patch().lookupPatchField<surfaceScalarField, scalar>("thetaf");

            this->refGrad() = -(g.value() & patch().nf())*thetapf
                                /(Cp.value()*thetaa*thetaf);
        #};
    }
    top
    {
        type            hydroStatic;
        refValue        uniform 0;
        valueFraction   uniform 0;
        refGradient     uniform 0;
    }
    left
    {
        type            zeroGradient;
    }
    right
    {
        type            zeroGradient;
    }
}


// ************************************************************************* //
