/*--------------------------------*- C++ -*----------------------------------*\
| =========                 |                                                 |
| \\      /  F ield         | OpenFOAM: The Open Source CFD Toolbox           |
|  \\    /   O peration     | Version:  dev                                   |
|   \\  /    A nd           | Web:      www.OpenFOAM.org                      |
|    \\/     M anipulation  |                                                 |
\*---------------------------------------------------------------------------*/
FoamFile
{
    version     2.0;
    format      ascii;
    class       volScalarField;
    location    "0";
    object      k;
}
// * * * * * * * * * * * * * * * * * * * * * * * * * * * * * * * * * * * * * //

dimensions      [0 2 -2 0 0 0 0];

internalField  nonuniform #codeStream
{
    codeInclude
    #{
        #include "fvCFD.H"
    #};
    codeOptions
    #{
        -I$(LIB_SRC)/finiteVolume/lnInclude \
        -I$(LIB_SRC)/meshTools/lnInclude
    #};
    codeLibs
    #{
        -lmeshTools \
        -lfiniteVolume
    #};
   
    code
    #{
        // Constants to calculate the TKE, k
        const scalar k0 = 0.4;
        const scalar z1 = 250;
        const scalar kmin = 1e-5;
    
        // Get the database and the mesh
        const IOdictionary& d = static_cast<const IOdictionary&>(dict);
        const fvMesh& mesh = refCast<const fvMesh>(d.db());
        
        // Get the height field
        scalarField z = mesh.C().component(2);

        os  << max(k0*pow(1-z/z1,3), kmin);
    #};
};

boundaryField
{
    ground
    {
        type            kqRWallFunction;
        value           uniform 0.4;
    }
    top
    {
        type            zeroGradient;
        value           uniform 0;
    }
    inlet
    {
        type            cyclic;
        value           uniform 0.4;
    }
    outlet
    {
        type            cyclic;
        value           uniform 0.4;
    }
    front
    {
        type           zeroGradient;
    }
    back
    {
        type           zeroGradient;
    }
}


// ************************************************************************* //
