10 0.275022
20 0.237794
30 0.213355
40 0.197004
50 0.185811
60 0.178023
70 0.172567
80 0.168771
90 0.1662
100 0.164573
110 0.163697
120 0.16344
130 0.163698
140 0.164387
150 0.165433
160 0.166771
170 0.16834
180 0.17009
190 0.171977
200 0.173968
210 0.176037
220 0.178167
230 0.180349
240 0.182579
250 0.184859
260 0.187193
270 0.189591
280 0.19206
290 0.194611
300 0.197256
310 0.200006
320 0.202872
330 0.205866
340 0.208998
350 0.21228
360 0.215722
370 0.219349
380 0.223177
390 0.227223
400 0.231498
410 0.235997
420 0.240743
430 0.245755
440 0.251052
450 0.256652
460 0.262573
470 0.268833
480 0.275415
490 0.282364
500 0.289722
510 0.297522
520 0.305793
530 0.314581
540 0.323927
550 0.333865
560 0.34443
570 0.355657
580 0.367582
590 0.380258
600 0.393736
610 0.408057
620 0.423279
630 0.439453
640 0.456623
650 0.47485
660 0.494188
670 0.514704
680 0.536472
690 0.559551
700 0.584021
710 0.609975
720 0.637514
730 0.666756
740 0.697851
750 0.730956
760 0.766251
770 0.803967
780 0.84436
790 0.887739
800 0.934444
810 0.984846
820 1.0393
830 1.09808
840 1.16141
850 1.22958
860 1.30246
870 1.37902
880 1.45669
890 1.53012
900 1.58938
910 1.61706
920 1.58686
930 1.47461
940 1.29062
950 1.09662
960 0.951302
970 0.869384
980 0.840387
990 0.849046
1000 0.879576
1010 0.919162
1020 0.957094
1030 0.984498
1040 0.995417
1050 0.988043
1060 0.965793
1070 0.936188
1080 0.907364
1090 0.885204
1100 0.872319
1110 0.868502
1120 0.871689
1130 0.878875
1140 0.886887
1150 0.893013
1160 0.895485
1170 0.893749
1180 0.888414
1190 0.880914
1200 0.872969
1210 0.86609
1220 0.861238
1230 0.858725
1240 0.858277
1250 0.85921
1260 0.860662
1270 0.861807
1280 0.86203
1290 0.861015
1300 0.858774
1310 0.855612
1320 0.851956
1330 0.848188
1340 0.844597
1350 0.841317
1360 0.838328
1370 0.835495
1380 0.83263
1390 0.829578
1400 0.826234
1410 0.822543
1420 0.818518
1430 0.814225
1440 0.809765
1450 0.805241
1460 0.800745
1470 0.796347
1480 0.792101
1490 0.78802
1500 0.784088
1510 0.780275
1520 0.776549
1530 0.772882
1540 0.769263
1550 0.765696
1560 0.762205
1570 0.758844
1580 0.75565
1590 0.752624
1600 0.74976
1610 0.747035
1620 0.744426
1630 0.741911
1640 0.739473
1650 0.73711
1660 0.734837
1670 0.732666
1680 0.730592
1690 0.728613
1700 0.726723
1710 0.724917
1720 0.723191
1730 0.721542
1740 0.719973
1750 0.718493
1760 0.717106
1770 0.715804
1780 0.714576
1790 0.713415
1800 0.712311
1810 0.711256
1820 0.710248
1830 0.709285
1840 0.708372
1850 0.707509
1860 0.706688
1870 0.7059
1880 0.705137
1890 0.704391
1900 0.703654
1910 0.702923
1920 0.702205
1930 0.701515
1940 0.700841
1950 0.700171
1960 0.699494
1970 0.698799
1980 0.69808
1990 0.697334
2000 0.696563
2010 0.695782
2020 0.695021
2030 0.694274
2040 0.693535
2050 0.692794
2060 0.69204
2070 0.691263
2080 0.690455
2090 0.689619
2100 0.688791
2110 0.687986
2120 0.687189
2130 0.686394
2140 0.68559
2150 0.684765
2160 0.683913
2170 0.683029
2180 0.682121
2190 0.681229
2200 0.68037
2210 0.679532
2220 0.678707
2230 0.677884
2240 0.677051
2250 0.676199
2260 0.675325
2270 0.674433
2280 0.673562
2290 0.672727
2300 0.671916
2310 0.671124
2320 0.670342
2330 0.66956
2340 0.668771
2350 0.667972
2360 0.667168
2370 0.666389
2380 0.665645
2390 0.664926
2400 0.664224
2410 0.663533
2420 0.662845
2430 0.662155
2440 0.661462
2450 0.660771
2460 0.660105
2470 0.659475
2480 0.658868
2490 0.65828
2500 0.657704
2510 0.657135
2520 0.656566
2530 0.655997
2540 0.655431
2550 0.654885
2560 0.654356
2570 0.653843
2580 0.653346
2590 0.65286
2600 0.652383
2610 0.651914
2620 0.651451
2630 0.651
2640 0.650571
2650 0.65016
2660 0.649763
2670 0.649378
2680 0.648999
2690 0.648625
2700 0.648254
2710 0.647887
2720 0.647535
2730 0.647201
2740 0.646881
2750 0.646571
2760 0.646267
2770 0.645965
2780 0.645662
2790 0.645359
2800 0.645056
2810 0.644764
2820 0.644487
2830 0.644219
2840 0.643958
2850 0.643702
2860 0.643446
2870 0.64319
2880 0.642932
2890 0.642676
2900 0.642428
2910 0.642186
2920 0.64195
2930 0.641717
2940 0.641486
2950 0.641253
2960 0.641019
2970 0.640783
2980 0.640554
2990 0.640332
3000 0.640115
3010 0.639899
3020 0.639682
3030 0.639463
3040 0.639239
3050 0.639009
3060 0.638778
3070 0.638553
3080 0.638331
3090 0.638113
3100 0.637898
3110 0.637682
3120 0.637464
3130 0.637242
3140 0.637017
3150 0.636796
3160 0.636581
3170 0.63637
3180 0.63616
3190 0.635949
3200 0.635735
3210 0.635517
3220 0.635293
3230 0.635068
3240 0.634847
3250 0.634629
3260 0.634415
3270 0.634202
3280 0.63399
3290 0.633775
3300 0.633556
3310 0.633335
3320 0.633117
3330 0.632906
3340 0.632698
3350 0.63249
3360 0.63228
3370 0.632067
3380 0.631849
3390 0.631627
3400 0.631409
3410 0.631199
3420 0.630995
3430 0.630794
3440 0.630595
3450 0.630394
3460 0.630189
3470 0.62998
3480 0.629766
3490 0.629555
3500 0.629345
3510 0.629138
3520 0.628932
3530 0.628727
3540 0.628521
3550 0.628314
3560 0.628106
3570 0.627903
3580 0.627704
3590 0.627506
3600 0.62731
3610 0.627114
3620 0.626918
3630 0.62672
3640 0.62652
3650 0.626327
3660 0.626141
3670 0.62596
3680 0.625781
3690 0.625602
3700 0.62542
3710 0.625236
3720 0.625048
3730 0.624864
3740 0.624687
3750 0.624512
3760 0.624341
3770 0.62417
3780 0.623998
3790 0.623824
3800 0.623647
3810 0.62347
3820 0.623298
3830 0.623129
3840 0.622964
3850 0.6228
3860 0.622637
3870 0.622474
3880 0.622309
3890 0.622144
3900 0.621983
3910 0.621825
3920 0.621669
3930 0.621514
3940 0.621359
3950 0.621202
3960 0.621042
3970 0.620881
3980 0.620723
3990 0.620567
4000 0.620412
4010 0.620259
4020 0.620106
4030 0.619951
4040 0.619796
4050 0.619639
4060 0.619485
4070 0.619334
4080 0.619185
4090 0.619037
4100 0.618888
4110 0.618739
4120 0.618587
4130 0.618434
4140 0.618285
4150 0.618137
4160 0.617991
4170 0.617846
4180 0.6177
4190 0.617553
4200 0.617404
4210 0.617253
4220 0.617104
4230 0.616957
4240 0.61681
4250 0.616663
4260 0.616514
4270 0.616364
4280 0.616211
4290 0.616058
4300 0.615908
4310 0.61576
4320 0.615613
4330 0.615466
4340 0.615317
4350 0.615166
4360 0.615011
4370 0.614855
4380 0.614698
4390 0.614541
4400 0.614384
4410 0.614226
4420 0.614068
4430 0.61391
4440 0.613749
4450 0.613589
4460 0.613428
4470 0.613268
4480 0.613107
4490 0.612945
4500 0.612782
4510 0.612618
4520 0.612453
4530 0.612287
4540 0.612122
4550 0.611957
4560 0.611792
4570 0.611626
4580 0.61146
4590 0.611293
4600 0.611125
4610 0.610957
4620 0.610788
4630 0.610619
4640 0.61045
4650 0.61028
4660 0.610109
4670 0.609938
4680 0.609767
4690 0.609595
4700 0.609422
4710 0.60925
4720 0.609077
4730 0.608904
4740 0.60873
4750 0.608556
4760 0.608382
4770 0.608209
4780 0.608036
4790 0.607863
4800 0.607691
4810 0.607518
4820 0.607346
4830 0.607173
4840 0.607001
4850 0.606829
4860 0.606658
4870 0.606486
4880 0.606315
4890 0.606143
4900 0.605972
4910 0.605801
4920 0.60563
4930 0.60546
4940 0.605291
4950 0.605122
4960 0.604953
4970 0.604784
4980 0.604617
4990 0.60445
5000 0.604283
5010 0.604118
5020 0.603952
5030 0.603787
5040 0.603622
5050 0.603457
5060 0.603292
5070 0.603127
5080 0.602962
5090 0.602796
5100 0.602631
5110 0.602466
5120 0.602301
5130 0.602136
5140 0.601971
5150 0.601807
5160 0.601643
5170 0.601479
5180 0.601315
5190 0.60115
5200 0.600986
5210 0.600821
5220 0.600656
5230 0.600491
5240 0.600326
5250 0.600161
5260 0.599995
5270 0.599829
5280 0.599664
5290 0.599498
5300 0.599332
5310 0.599166
5320 0.599
5330 0.598833
5340 0.598667
5350 0.5985
5360 0.598334
5370 0.598166
5380 0.597999
5390 0.597832
5400 0.597664
5410 0.597496
5420 0.597327
5430 0.597159
5440 0.59699
5450 0.596821
5460 0.596652
5470 0.596483
5480 0.596313
5490 0.596143
5500 0.595973
5510 0.595803
5520 0.595632
5530 0.595461
5540 0.595289
5550 0.595118
5560 0.594946
5570 0.594774
5580 0.594601
5590 0.594428
5600 0.594255
5610 0.594082
5620 0.593908
5630 0.593734
5640 0.59356
5650 0.593385
5660 0.593211
5670 0.593035
5680 0.59286
5690 0.592684
5700 0.592508
5710 0.592332
5720 0.592155
5730 0.591978
5740 0.591801
5750 0.591624
5760 0.591446
5770 0.591268
5780 0.59109
5790 0.590911
5800 0.590732
5810 0.590553
5820 0.590374
5830 0.590194
5840 0.590014
5850 0.589834
5860 0.589653
5870 0.589472
5880 0.589291
5890 0.58911
5900 0.588928
5910 0.588746
5920 0.588564
5930 0.588381
5940 0.588199
5950 0.588015
5960 0.587832
5970 0.587648
5980 0.587464
5990 0.58728
6000 0.587095
6010 0.58691
6020 0.586725
6030 0.58654
6040 0.586354
6050 0.586168
6060 0.585981
6070 0.585795
6080 0.585608
6090 0.58542
6100 0.585233
6110 0.585045
6120 0.584857
6130 0.584668
6140 0.58448
6150 0.584291
6160 0.584101
6170 0.583912
6180 0.583722
6190 0.583532
6200 0.583342
6210 0.583151
6220 0.58296
6230 0.582769
6240 0.582578
6250 0.582386
6260 0.582194
6270 0.582002
6280 0.58181
6290 0.581618
6300 0.581425
6310 0.581232
6320 0.581039
6330 0.580846
6340 0.580653
6350 0.580459
6360 0.580265
6370 0.580071
6380 0.579877
6390 0.579683
6400 0.579489
6410 0.579294
6420 0.579099
6430 0.578905
6440 0.57871
6450 0.578515
6460 0.578319
6470 0.578124
6480 0.577929
6490 0.577733
6500 0.577538
6510 0.577342
6520 0.577147
6530 0.576951
6540 0.576755
6550 0.576559
6560 0.576363
6570 0.576167
6580 0.575971
6590 0.575775
6600 0.575579
6610 0.575383
6620 0.575187
6630 0.574991
6640 0.574795
6650 0.574599
6660 0.574403
6670 0.574207
6680 0.574011
6690 0.573815
6700 0.57362
6710 0.573424
6720 0.573228
6730 0.573032
6740 0.572837
6750 0.572641
6760 0.572446
6770 0.572251
6780 0.572055
6790 0.57186
6800 0.571665
6810 0.571471
6820 0.571276
6830 0.571081
6840 0.570887
6850 0.570692
6860 0.570498
6870 0.570304
6880 0.570111
6890 0.569917
6900 0.569724
6910 0.56953
6920 0.569337
6930 0.569144
6940 0.568952
6950 0.568759
6960 0.568567
6970 0.568375
6980 0.568183
6990 0.567991
7000 0.567799
7010 0.567607
7020 0.567416
7030 0.567225
7040 0.567033
7050 0.566843
7060 0.566652
7070 0.566461
7080 0.566271
7090 0.566082
7100 0.565892
7110 0.565703
7120 0.565514
7130 0.565325
7140 0.565137
7150 0.564949
7160 0.564762
7170 0.564575
7180 0.564388
7190 0.564202
7200 0.564016
7210 0.56383
7220 0.563645
7230 0.56346
7240 0.563276
7250 0.563092
7260 0.562909
7270 0.562726
7280 0.562544
7290 0.562362
7300 0.56218
7310 0.562
7320 0.561819
7330 0.561639
7340 0.56146
7350 0.561281
7360 0.561102
7370 0.560925
7380 0.560747
7390 0.560571
7400 0.560394
7410 0.560219
7420 0.560044
7430 0.559869
7440 0.559695
7450 0.559522
7460 0.559349
7470 0.559177
7480 0.559005
7490 0.558834
7500 0.558664
7510 0.558494
7520 0.558325
7530 0.558156
7540 0.557988
7550 0.557821
7560 0.557654
7570 0.557488
7580 0.557322
7590 0.557158
7600 0.556993
7610 0.55683
7620 0.556667
7630 0.556505
7640 0.556343
7650 0.556182
7660 0.556022
7670 0.555863
7680 0.555704
7690 0.555546
7700 0.555388
7710 0.555231
7720 0.555075
7730 0.554919
7740 0.554765
7750 0.554611
7760 0.554457
7770 0.554304
7780 0.554152
7790 0.554001
7800 0.553851
7810 0.553701
7820 0.553551
7830 0.553403
7840 0.553255
7850 0.553108
7860 0.552962
7870 0.552816
7880 0.552671
7890 0.552527
7900 0.552384
7910 0.552241
7920 0.552099
7930 0.551958
7940 0.551817
7950 0.551678
7960 0.551539
7970 0.5514
7980 0.551263
7990 0.551126
8000 0.55099
8010 0.550855
8020 0.55072
8030 0.550586
8040 0.550453
8050 0.550321
8060 0.550189
8070 0.550059
8080 0.549929
8090 0.549799
8100 0.549671
8110 0.549543
8120 0.549416
8130 0.54929
8140 0.549164
8150 0.549039
8160 0.548915
8170 0.548792
8180 0.548669
8190 0.548548
8200 0.548427
8210 0.548307
8220 0.548187
8230 0.548068
8240 0.547951
8250 0.547833
8260 0.547717
8270 0.547601
8280 0.547486
8290 0.547372
8300 0.547259
8310 0.547146
8320 0.547035
8330 0.546924
8340 0.546813
8350 0.546704
8360 0.546595
8370 0.546487
8380 0.54638
8390 0.546273
8400 0.546167
8410 0.546062
8420 0.545958
8430 0.545855
8440 0.545752
8450 0.54565
8460 0.545549
8470 0.545448
8480 0.545349
8490 0.54525
8500 0.545152
8510 0.545054
8520 0.544958
8530 0.544862
8540 0.544767
8550 0.544672
8560 0.544579
8570 0.544486
8580 0.544393
8590 0.544302
8600 0.544211
8610 0.544121
8620 0.544032
8630 0.543944
8640 0.543856
8650 0.543769
8660 0.543683
8670 0.543598
8680 0.543513
8690 0.543429
8700 0.543346
8710 0.543263
8720 0.543181
8730 0.5431
8740 0.54302
8750 0.54294
8760 0.542861
8770 0.542783
8780 0.542706
8790 0.542629
8800 0.542553
8810 0.542478
8820 0.542403
8830 0.54233
8840 0.542256
8850 0.542184
8860 0.542112
8870 0.542041
8880 0.541971
8890 0.541902
8900 0.541833
8910 0.541765
8920 0.541698
8930 0.541631
8940 0.541566
8950 0.541501
8960 0.541437
8970 0.541373
8980 0.54131
8990 0.541248
9000 0.541187
9010 0.541126
9020 0.541066
9030 0.541007
9040 0.540948
9050 0.54089
9060 0.540833
9070 0.540776
9080 0.540721
9090 0.540665
9100 0.540611
9110 0.540557
9120 0.540503
9130 0.540451
9140 0.540399
9150 0.540347
9160 0.540297
9170 0.540247
9180 0.540197
9190 0.540149
9200 0.5401
9210 0.540053
9220 0.540006
9230 0.53996
9240 0.539914
9250 0.53987
9260 0.539825
9270 0.539782
9280 0.539739
9290 0.539696
9300 0.539654
9310 0.539613
9320 0.539573
9330 0.539533
9340 0.539494
9350 0.539455
9360 0.539417
9370 0.53938
9380 0.539343
9390 0.539307
9400 0.539271
9410 0.539236
9420 0.539202
9430 0.539168
9440 0.539135
9450 0.539102
9460 0.53907
9470 0.539039
9480 0.539008
9490 0.538978
9500 0.538949
9510 0.53892
9520 0.538892
9530 0.538864
9540 0.538837
9550 0.538811
9560 0.538785
9570 0.53876
9580 0.538736
9590 0.538712
9600 0.538689
9610 0.538666
9620 0.538644
9630 0.538622
9640 0.538601
9650 0.538581
9660 0.538561
9670 0.538542
9680 0.538523
9690 0.538505
9700 0.538487
9710 0.53847
9720 0.538454
9730 0.538438
9740 0.538422
9750 0.538408
9760 0.538393
9770 0.538379
9780 0.538366
9790 0.538353
9800 0.538341
9810 0.538329
9820 0.538318
9830 0.538307
9840 0.538297
9850 0.538287
9860 0.538278
9870 0.53827
9880 0.538262
9890 0.538254
9900 0.538247
9910 0.538241
9920 0.538235
9930 0.538229
9940 0.538224
9950 0.53822
9960 0.538216
9970 0.538213
9980 0.53821
9990 0.538208
10000 0.538206
10010 0.538205
10020 0.538204
10030 0.538203
10040 0.538203
10050 0.538204
10060 0.538205
10070 0.538206
10080 0.538208
10090 0.538211
10100 0.538214
10110 0.538217
10120 0.538221
10130 0.538225
10140 0.53823
10150 0.538235
10160 0.538241
10170 0.538247
10180 0.538254
10190 0.538261
10200 0.538268
10210 0.538276
10220 0.538284
10230 0.538293
10240 0.538303
10250 0.538312
10260 0.538322
10270 0.538333
10280 0.538344
10290 0.538355
10300 0.538367
10310 0.53838
10320 0.538392
10330 0.538406
10340 0.538419
10350 0.538433
10360 0.538448
10370 0.538463
10380 0.538478
10390 0.538494
10400 0.53851
10410 0.538527
10420 0.538544
10430 0.538561
10440 0.538579
10450 0.538597
10460 0.538616
10470 0.538635
10480 0.538655
10490 0.538675
10500 0.538695
10510 0.538716
10520 0.538737
10530 0.538759
10540 0.538781
10550 0.538804
10560 0.538826
10570 0.538849
10580 0.538873
10590 0.538897
10600 0.538921
10610 0.538946
10620 0.538971
10630 0.538996
10640 0.539022
10650 0.539048
10660 0.539074
10670 0.539101
10680 0.539128
10690 0.539156
10700 0.539184
10710 0.539212
10720 0.539241
10730 0.53927
10740 0.5393
10750 0.53933
10760 0.53936
10770 0.53939
10780 0.539421
10790 0.539453
10800 0.539484
10810 0.539516
10820 0.539549
10830 0.539582
10840 0.539615
10850 0.539648
10860 0.539682
10870 0.539716
10880 0.539751
10890 0.539786
10900 0.539821
10910 0.539856
10920 0.539892
10930 0.539929
10940 0.539965
10950 0.540002
10960 0.540039
10970 0.540077
10980 0.540115
10990 0.540154
11000 0.540192
11010 0.540232
11020 0.540271
11030 0.540311
11040 0.540352
11050 0.540392
11060 0.540433
11070 0.540475
11080 0.540517
11090 0.540559
11100 0.540601
11110 0.540644
11120 0.540687
11130 0.54073
11140 0.540773
11150 0.540817
11160 0.540861
11170 0.540906
11180 0.540951
11190 0.540996
11200 0.541041
11210 0.541087
11220 0.541133
11230 0.541179
11240 0.541225
11250 0.541272
11260 0.541319
11270 0.541367
11280 0.541414
11290 0.541462
11300 0.54151
11310 0.541559
11320 0.541607
11330 0.541656
11340 0.541706
11350 0.541755
11360 0.541805
11370 0.541855
11380 0.541905
11390 0.541956
11400 0.542007
11410 0.542058
11420 0.542109
11430 0.542161
11440 0.542213
11450 0.542265
11460 0.542317
11470 0.54237
11480 0.542423
11490 0.542476
11500 0.542529
11510 0.542583
11520 0.542637
11530 0.542691
11540 0.542745
11550 0.5428
11560 0.542855
11570 0.54291
11580 0.542965
11590 0.54302
11600 0.543076
11610 0.543132
11620 0.543188
11630 0.543245
11640 0.543301
11650 0.543358
11660 0.543415
11670 0.543473
11680 0.54353
11690 0.543588
11700 0.543646
11710 0.543704
11720 0.543762
11730 0.54382
11740 0.543879
11750 0.543937
11760 0.543996
11770 0.544055
11780 0.544114
11790 0.544174
11800 0.544234
11810 0.544293
11820 0.544353
11830 0.544414
11840 0.544474
11850 0.544535
11860 0.544596
11870 0.544657
11880 0.544718
11890 0.544779
11900 0.544841
11910 0.544903
11920 0.544965
11930 0.545027
11940 0.545089
11950 0.545152
11960 0.545214
11970 0.545277
11980 0.54534
11990 0.545403
12000 0.545467
12010 0.54553
12020 0.545594
12030 0.545658
12040 0.545722
12050 0.545787
12060 0.545851
12070 0.545916
12080 0.545981
12090 0.546045
12100 0.546111
12110 0.546176
12120 0.546241
12130 0.546307
12140 0.546373
12150 0.546439
12160 0.546505
12170 0.546571
12180 0.546637
12190 0.546704
12200 0.546771
12210 0.546838
12220 0.546905
12230 0.546972
12240 0.547039
12250 0.547106
12260 0.547174
12270 0.547242
12280 0.54731
12290 0.547378
12300 0.547446
12310 0.547514
12320 0.547582
12330 0.547651
12340 0.54772
12350 0.547788
12360 0.547857
12370 0.547927
12380 0.547996
12390 0.548066
12400 0.548136
12410 0.548206
12420 0.548276
12430 0.548346
12440 0.548417
12450 0.548487
12460 0.548558
12470 0.548629
12480 0.5487
12490 0.548771
12500 0.548843
12510 0.548914
12520 0.548985
12530 0.549057
12540 0.549128
12550 0.5492
12560 0.549272
12570 0.549344
12580 0.549416
12590 0.549488
12600 0.54956
12610 0.549633
12620 0.549705
12630 0.549777
12640 0.54985
12650 0.549923
12660 0.549995
12670 0.550068
12680 0.550141
12690 0.550214
12700 0.550287
12710 0.55036
12720 0.550433
12730 0.550506
12740 0.55058
12750 0.550653
12760 0.550727
12770 0.5508
12780 0.550874
12790 0.550948
12800 0.551022
12810 0.551095
12820 0.551169
12830 0.551243
12840 0.551318
12850 0.551392
12860 0.551466
12870 0.55154
12880 0.551615
12890 0.551689
12900 0.551764
12910 0.551838
12920 0.551913
12930 0.551988
12940 0.552063
12950 0.552137
12960 0.552212
12970 0.552287
12980 0.552363
12990 0.552438
13000 0.552513
13010 0.552588
13020 0.552664
13030 0.552739
13040 0.552814
13050 0.55289
13060 0.552966
13070 0.553041
13080 0.553117
13090 0.553193
13100 0.553269
13110 0.553344
13120 0.55342
13130 0.553496
13140 0.553573
13150 0.553649
13160 0.553725
13170 0.553801
13180 0.553877
13190 0.553954
13200 0.55403
13210 0.554107
13220 0.554183
13230 0.55426
13240 0.554336
13250 0.554413
13260 0.55449
13270 0.554567
13280 0.554643
13290 0.55472
13300 0.554797
13310 0.554874
13320 0.554951
13330 0.555028
13340 0.555105
13350 0.555183
13360 0.55526
13370 0.555337
13380 0.555414
13390 0.555492
13400 0.555569
13410 0.555647
13420 0.555724
13430 0.555802
13440 0.555879
13450 0.555957
13460 0.556035
13470 0.556112
13480 0.55619
13490 0.556268
13500 0.556346
13510 0.556424
13520 0.556501
13530 0.556579
13540 0.556657
13550 0.556736
13560 0.556814
13570 0.556892
13580 0.55697
13590 0.557048
13600 0.557126
13610 0.557205
13620 0.557283
13630 0.557362
13640 0.55744
13650 0.557518
13660 0.557597
13670 0.557675
13680 0.557754
13690 0.557833
13700 0.557911
13710 0.55799
13720 0.558069
13730 0.558147
13740 0.558226
13750 0.558305
13760 0.558384
13770 0.558463
13780 0.558542
13790 0.558621
13800 0.5587
13810 0.558779
13820 0.558858
13830 0.558937
13840 0.559016
13850 0.559095
13860 0.559174
13870 0.559253
13880 0.559333
13890 0.559412
13900 0.559491
13910 0.559571
13920 0.55965
13930 0.559729
13940 0.559809
13950 0.559888
13960 0.559968
13970 0.560047
13980 0.560126
13990 0.560206
14000 0.560286
14010 0.560365
14020 0.560445
14030 0.560524
14040 0.560604
14050 0.560684
14060 0.560763
14070 0.560843
14080 0.560923
14090 0.561003
14100 0.561082
14110 0.561162
14120 0.561242
14130 0.561322
14140 0.561402
14150 0.561482
14160 0.561561
14170 0.561641
14180 0.561721
14190 0.561801
14200 0.561881
14210 0.561961
14220 0.562041
14230 0.562121
14240 0.562201
14250 0.562282
14260 0.562362
14270 0.562442
14280 0.562522
14290 0.562602
14300 0.562682
14310 0.562762
14320 0.562843
14330 0.562923
14340 0.563003
14350 0.563083
14360 0.563164
14370 0.563244
14380 0.563324
14390 0.563405
14400 0.563485
14410 0.563565
14420 0.563646
14430 0.563726
14440 0.563807
14450 0.563887
14460 0.563968
14470 0.564049
14480 0.56413
14490 0.564211
14500 0.564292
14510 0.564373
14520 0.564453
14530 0.564534
14540 0.564615
14550 0.564696
14560 0.564777
14570 0.564859
14580 0.56494
14590 0.565021
14600 0.565102
14610 0.565183
14620 0.565264
14630 0.565345
14640 0.565426
14650 0.565507
14660 0.565588
14670 0.565669
14680 0.56575
14690 0.565831
14700 0.565912
14710 0.565993
14720 0.566074
14730 0.566155
14740 0.566236
14750 0.566317
14760 0.566398
14770 0.566479
14780 0.56656
14790 0.566641
14800 0.566722
14810 0.566803
14820 0.566884
14830 0.566966
14840 0.567047
14850 0.567128
14860 0.567209
14870 0.56729
14880 0.567371
14890 0.567452
14900 0.567533
14910 0.567614
14920 0.567695
14930 0.567776
14940 0.567857
14950 0.567938
14960 0.568019
14970 0.5681
14980 0.568182
14990 0.568263
15000 0.568344
15010 0.568425
15020 0.568506
15030 0.568587
15040 0.568668
15050 0.568749
15060 0.56883
15070 0.568911
15080 0.568993
15090 0.569074
15100 0.569155
15110 0.569236
15120 0.569317
15130 0.569398
15140 0.56948
15150 0.569561
15160 0.569642
15170 0.569723
15180 0.569804
15190 0.569885
15200 0.569967
15210 0.570048
15220 0.570129
15230 0.57021
15240 0.570292
15250 0.570373
15260 0.570454
15270 0.570535
15280 0.570617
15290 0.570698
15300 0.570779
15310 0.570861
15320 0.570942
15330 0.571023
15340 0.571104
15350 0.571186
15360 0.571267
15370 0.571349
15380 0.57143
15390 0.571511
15400 0.571593
15410 0.571674
15420 0.571755
15430 0.571837
15440 0.571918
15450 0.572
15460 0.572081
15470 0.572163
15480 0.572244
15490 0.572325
15500 0.572407
15510 0.572488
15520 0.57257
15530 0.572651
15540 0.572733
15550 0.572814
15560 0.572896
15570 0.572977
15580 0.573059
15590 0.57314
15600 0.573222
15610 0.573303
15620 0.573385
15630 0.573467
15640 0.573548
15650 0.57363
15660 0.573711
15670 0.573793
15680 0.573874
15690 0.573956
15700 0.574037
15710 0.574119
15720 0.574201
15730 0.574282
15740 0.574364
15750 0.574445
15760 0.574527
15770 0.574609
15780 0.57469
15790 0.574772
15800 0.574853
15810 0.574935
15820 0.575017
15830 0.575098
15840 0.57518
15850 0.575262
15860 0.575343
15870 0.575425
15880 0.575506
15890 0.575588
15900 0.57567
15910 0.575751
15920 0.575833
15930 0.575915
15940 0.575996
15950 0.576078
15960 0.57616
15970 0.576241
15980 0.576323
15990 0.576405
16000 0.576487
16010 0.576568
16020 0.57665
16030 0.576732
16040 0.576813
16050 0.576895
16060 0.576977
16070 0.577058
16080 0.57714
16090 0.577222
16100 0.577304
16110 0.577385
16120 0.577467
16130 0.577549
16140 0.57763
16150 0.577712
16160 0.577794
16170 0.577876
16180 0.577957
16190 0.578039
16200 0.578121
16210 0.578203
16220 0.578284
16230 0.578366
16240 0.578448
16250 0.57853
16260 0.578611
16270 0.578693
16280 0.578775
16290 0.578857
16300 0.578939
16310 0.57902
16320 0.579102
16330 0.579184
16340 0.579266
16350 0.579347
16360 0.579429
16370 0.579511
16380 0.579593
16390 0.579675
16400 0.579756
16410 0.579838
16420 0.57992
16430 0.580002
16440 0.580084
16450 0.580165
16460 0.580247
16470 0.580329
16480 0.580411
16490 0.580493
16500 0.580574
16510 0.580656
16520 0.580738
16530 0.58082
16540 0.580902
16550 0.580983
16560 0.581065
16570 0.581147
16580 0.581229
16590 0.581311
16600 0.581393
16610 0.581474
16620 0.581556
16630 0.581638
16640 0.58172
16650 0.581802
16660 0.581883
16670 0.581965
16680 0.582047
16690 0.582129
16700 0.582211
16710 0.582293
16720 0.582374
16730 0.582456
16740 0.582538
16750 0.58262
16760 0.582702
16770 0.582784
16780 0.582865
16790 0.582947
16800 0.583029
16810 0.583111
16820 0.583193
16830 0.583275
16840 0.583356
16850 0.583438
16860 0.58352
16870 0.583602
16880 0.583684
16890 0.583766
16900 0.583847
16910 0.583929
16920 0.584011
16930 0.584093
16940 0.584175
16950 0.584257
16960 0.584339
16970 0.58442
16980 0.584502
16990 0.584584
17000 0.584666
17010 0.584748
17020 0.58483
17030 0.584912
17040 0.584994
17050 0.585076
17060 0.585157
17070 0.585239
17080 0.585321
17090 0.585403
17100 0.585485
17110 0.585567
17120 0.585649
17130 0.585731
17140 0.585812
17150 0.585894
17160 0.585976
17170 0.586058
17180 0.58614
17190 0.586222
17200 0.586304
17210 0.586386
17220 0.586468
17230 0.586549
17240 0.586631
17250 0.586713
17260 0.586795
17270 0.586877
17280 0.586959
17290 0.587041
17300 0.587122
17310 0.587204
17320 0.587286
17330 0.587368
17340 0.58745
17350 0.587532
17360 0.587613
17370 0.587695
17380 0.587777
17390 0.587859
17400 0.587941
17410 0.588023
17420 0.588104
17430 0.588186
17440 0.588268
17450 0.58835
17460 0.588432
17470 0.588513
17480 0.588595
17490 0.588677
17500 0.588759
17510 0.58884
17520 0.588922
17530 0.589004
17540 0.589086
17550 0.589167
17560 0.589249
17570 0.589331
17580 0.589412
17590 0.589494
17600 0.589576
17610 0.589657
17620 0.589739
17630 0.589821
17640 0.589903
17650 0.589984
17660 0.590066
17670 0.590147
17680 0.590229
17690 0.590311
17700 0.590392
17710 0.590474
17720 0.590556
17730 0.590637
17740 0.590719
17750 0.5908
17760 0.590882
17770 0.590963
17780 0.591045
17790 0.591126
17800 0.591208
17810 0.59129
17820 0.591371
17830 0.591453
17840 0.591534
17850 0.591615
17860 0.591697
17870 0.591778
17880 0.59186
17890 0.591941
17900 0.592023
17910 0.592104
17920 0.592186
17930 0.592267
17940 0.592348
17950 0.59243
17960 0.592511
17970 0.592592
17980 0.592674
17990 0.592755
18000 0.592836
18010 0.592918
18020 0.592999
18030 0.59308
18040 0.593162
18050 0.593243
18060 0.593324
18070 0.593405
18080 0.593486
18090 0.593568
18100 0.593649
18110 0.59373
18120 0.593811
18130 0.593892
18140 0.593973
18150 0.594055
18160 0.594136
18170 0.594217
18180 0.594298
18190 0.594379
18200 0.59446
18210 0.594541
18220 0.594622
18230 0.594703
18240 0.594784
18250 0.594865
18260 0.594946
18270 0.595027
18280 0.595108
18290 0.595189
18300 0.59527
18310 0.595351
18320 0.595431
18330 0.595512
18340 0.595593
18350 0.595674
18360 0.595755
18370 0.595835
18380 0.595916
18390 0.595997
18400 0.596078
18410 0.596158
18420 0.596239
18430 0.59632
18440 0.5964
18450 0.596481
18460 0.596562
18470 0.596642
18480 0.596723
18490 0.596804
18500 0.596884
18510 0.596965
18520 0.597045
18530 0.597126
18540 0.597206
18550 0.597287
18560 0.597367
18570 0.597448
18580 0.597528
18590 0.597608
18600 0.597689
18610 0.597769
18620 0.597849
18630 0.59793
18640 0.59801
18650 0.59809
18660 0.598171
18670 0.598251
18680 0.598331
18690 0.598411
18700 0.598492
18710 0.598572
18720 0.598652
18730 0.598732
18740 0.598812
18750 0.598892
18760 0.598972
18770 0.599053
18780 0.599133
18790 0.599213
18800 0.599293
18810 0.599373
18820 0.599453
18830 0.599533
18840 0.599612
18850 0.599692
18860 0.599772
18870 0.599852
18880 0.599932
18890 0.600012
18900 0.600092
18910 0.600171
18920 0.600251
18930 0.600331
18940 0.600411
18950 0.60049
18960 0.60057
18970 0.60065
18980 0.600729
18990 0.600809
19000 0.600888
19010 0.600968
19020 0.601047
19030 0.601127
19040 0.601206
19050 0.601286
19060 0.601365
19070 0.601445
19080 0.601524
19090 0.601603
19100 0.601683
19110 0.601762
19120 0.601841
19130 0.60192
19140 0.602
19150 0.602079
19160 0.602158
19170 0.602237
19180 0.602316
19190 0.602395
19200 0.602474
19210 0.602553
19220 0.602632
19230 0.602711
19240 0.60279
19250 0.602869
19260 0.602948
19270 0.603027
19280 0.603106
19290 0.603184
19300 0.603263
19310 0.603342
19320 0.603421
19330 0.603499
19340 0.603578
19350 0.603656
19360 0.603735
19370 0.603814
19380 0.603892
19390 0.603971
19400 0.604049
19410 0.604127
19420 0.604206
19430 0.604284
19440 0.604363
19450 0.604441
19460 0.604519
19470 0.604597
19480 0.604676
19490 0.604754
19500 0.604832
19510 0.60491
19520 0.604988
19530 0.605066
19540 0.605144
19550 0.605222
19560 0.6053
19570 0.605378
19580 0.605456
19590 0.605534
19600 0.605611
19610 0.605689
19620 0.605767
19630 0.605845
19640 0.605922
19650 0.606
19660 0.606078
19670 0.606155
19680 0.606233
19690 0.60631
19700 0.606388
19710 0.606465
19720 0.606542
19730 0.60662
19740 0.606697
19750 0.606774
19760 0.606852
19770 0.606929
19780 0.607006
19790 0.607083
19800 0.60716
19810 0.607237
19820 0.607314
19830 0.607391
19840 0.607468
19850 0.607545
19860 0.607622
19870 0.607699
19880 0.607776
19890 0.607852
19900 0.607929
19910 0.608005
19920 0.608082
19930 0.608158
19940 0.608235
19950 0.608311
19960 0.608387
19970 0.608463
19980 0.608539
19990 0.608615
20000 0.608691
20010 0.608767
20020 0.608843
20030 0.608919
20040 0.608995
20050 0.60907
20060 0.609146
20070 0.609222
20080 0.609297
20090 0.609373
20100 0.609448
20110 0.609524
20120 0.609599
20130 0.609675
20140 0.60975
20150 0.609825
20160 0.609901
20170 0.609976
20180 0.610051
20190 0.610126
20200 0.610202
20210 0.610277
20220 0.610352
20230 0.610427
20240 0.610502
20250 0.610577
20260 0.610652
20270 0.610727
20280 0.610802
20290 0.610877
20300 0.610951
20310 0.611026
20320 0.611101
20330 0.611176
20340 0.61125
20350 0.611325
20360 0.6114
20370 0.611474
20380 0.611549
20390 0.611624
20400 0.611698
20410 0.611773
20420 0.611847
20430 0.611921
20440 0.611996
20450 0.61207
20460 0.612144
20470 0.612219
20480 0.612293
20490 0.612367
20500 0.612441
20510 0.612515
20520 0.612589
20530 0.612663
20540 0.612737
20550 0.612811
20560 0.612885
20570 0.612959
20580 0.613033
20590 0.613107
20600 0.613181
20610 0.613255
20620 0.613328
20630 0.613402
20640 0.613476
20650 0.613549
20660 0.613623
20670 0.613696
20680 0.61377
20690 0.613843
20700 0.613917
20710 0.61399
20720 0.614063
20730 0.614137
20740 0.61421
20750 0.614283
20760 0.614356
20770 0.614429
20780 0.614502
20790 0.614575
20800 0.614648
20810 0.614721
20820 0.614794
20830 0.614867
20840 0.61494
20850 0.615013
20860 0.615085
20870 0.615158
20880 0.615231
20890 0.615303
20900 0.615376
20910 0.615448