10 0.274475
20 0.237047
30 0.212562
40 0.196217
50 0.185045
60 0.177279
70 0.171844
80 0.168066
90 0.16551
100 0.163895
110 0.16303
120 0.16278
130 0.163044
140 0.163736
150 0.164783
160 0.166118
170 0.167682
180 0.169424
190 0.171301
200 0.173279
210 0.175333
220 0.177447
230 0.179611
240 0.181823
250 0.184082
260 0.186396
270 0.18877
280 0.191216
290 0.193743
300 0.196363
310 0.199086
320 0.201924
330 0.204888
340 0.207988
350 0.211237
360 0.214645
370 0.218235
380 0.222027
390 0.226035
400 0.230273
410 0.234751
420 0.239485
430 0.244485
440 0.249767
450 0.255348
460 0.261244
470 0.267476
480 0.274064
490 0.281033
500 0.28841
510 0.296222
520 0.304501
530 0.313279
540 0.322589
550 0.332468
560 0.342955
570 0.354091
580 0.365916
590 0.378476
600 0.391817
610 0.405988
620 0.421036
630 0.437015
640 0.453975
650 0.471972
660 0.491064
670 0.511311
680 0.532779
690 0.555537
700 0.579663
710 0.605245
720 0.632382
730 0.661192
740 0.691807
750 0.724388
760 0.759119
770 0.796219
780 0.835941
790 0.87858
800 0.924468
810 0.973971
820 1.02745
830 1.08521
840 1.14754
850 1.21467
860 1.28657
870 1.36244
880 1.44013
890 1.51506
900 1.57846
910 1.61467
920 1.59919
930 1.50537
940 1.33278
950 1.13451
960 0.975855
970 0.88062
980 0.841399
990 0.843153
1000 0.870203
1010 0.909003
1020 0.948499
1030 0.979329
1040 0.994703
1050 0.991779
1060 0.972632
1070 0.944106
1080 0.914524
1090 0.890489
1100 0.875407
1110 0.869675
1120 0.87158
1130 0.878257
1140 0.886495
1150 0.893402
1160 0.896934
1170 0.896231
1180 0.891649
1190 0.884478
1200 0.876436
1210 0.869138
1220 0.863705
1230 0.860609
1240 0.859704
1250 0.860391
1260 0.861838
1270 0.863195
1280 0.863776
1290 0.863175
1300 0.861304
1310 0.858347
1320 0.854662
1330 0.850658
1340 0.846683
1350 0.842953
1360 0.839534
1370 0.836354
1380 0.833261
1390 0.830073
1400 0.82664
1410 0.822873
1420 0.818763
1430 0.814372
1440 0.809806
1450 0.805191
1460 0.800638
1470 0.79623
1480 0.792007
1490 0.787975
1500 0.784111
1510 0.780378
1520 0.77674
1530 0.773171
1540 0.76966
1550 0.76621
1560 0.762833
1570 0.759551
1580 0.75638
1590 0.753335
1600 0.750425
1610 0.747649
1620 0.745004
1630 0.742482
1640 0.740075
1650 0.737776
1660 0.735579
1670 0.73348
1680 0.731477
1690 0.729568
1700 0.727752
1710 0.726029
1720 0.724396
1730 0.722853
1740 0.721397
1750 0.720025
1760 0.718732
1770 0.717513
1780 0.716362
1790 0.715273
1800 0.714239
1810 0.713253
1820 0.712311
1830 0.711407
1840 0.710538
1850 0.709698
1860 0.708884
1870 0.708091
1880 0.707314
1890 0.706549
1900 0.705791
1910 0.705035
1920 0.70428
1930 0.703521
1940 0.702758
1950 0.701987
1960 0.701208
1970 0.700419
1980 0.699617
1990 0.698803
2000 0.697974
2010 0.697132
2020 0.696275
2030 0.695404
2040 0.69452
2050 0.693623
2060 0.692715
2070 0.691795
2080 0.690864
2090 0.689923
2100 0.688973
2110 0.688017
2120 0.687056
2130 0.686091
2140 0.685124
2150 0.684158
2160 0.683192
2170 0.682229
2180 0.68127
2190 0.680314
2200 0.679364
2210 0.678422
2220 0.677487
2230 0.676561
2240 0.675646
2250 0.674743
2260 0.673852
2270 0.672975
2280 0.672111
2290 0.671262
2300 0.670428
2310 0.669611
2320 0.66881
2330 0.668027
2340 0.667262
2350 0.666516
2360 0.665787
2370 0.665077
2380 0.664386
2390 0.663712
2400 0.663058
2410 0.662421
2420 0.661803
2430 0.661203
2440 0.66062
2450 0.660055
2460 0.659506
2470 0.658974
2480 0.658457
2490 0.657955
2500 0.657469
2510 0.656996
2520 0.656538
2530 0.656094
2540 0.655663
2550 0.655244
2560 0.654837
2570 0.65444
2580 0.654054
2590 0.653678
2600 0.653311
2610 0.652952
2620 0.652602
2630 0.652259
2640 0.651923
2650 0.651593
2660 0.651269
2670 0.650949
2680 0.650635
2690 0.650324
2700 0.650017
2710 0.649712
2720 0.649411
2730 0.649111
2740 0.648813
2750 0.648517
2760 0.648221
2770 0.647927
2780 0.647633
2790 0.64734
2800 0.647047
2810 0.646754
2820 0.646461
2830 0.646168
2840 0.645874
2850 0.645581
2860 0.645288
2870 0.644994
2880 0.6447
2890 0.644407
2900 0.644113
2910 0.64382
2920 0.643527
2930 0.643235
2940 0.642943
2950 0.642653
2960 0.642363
2970 0.642074
2980 0.641786
2990 0.641499
3000 0.641214
3010 0.640929
3020 0.640646
3030 0.640364
3040 0.640083
3050 0.639803
3060 0.639524
3070 0.639246
3080 0.638969
3090 0.638693
3100 0.638417
3110 0.638143
3120 0.637869
3130 0.637595
3140 0.637323
3150 0.637051
3160 0.63678
3170 0.63651
3180 0.636241
3190 0.635973
3200 0.635707
3210 0.635441
3220 0.635178
3230 0.634915
3240 0.634654
3250 0.634395
3260 0.634138
3270 0.633882
3280 0.633628
3290 0.633376
3300 0.633127
3310 0.632879
3320 0.632633
3330 0.632389
3340 0.632147
3350 0.631908
3360 0.631671
3370 0.631436
3380 0.631203
3390 0.630973
3400 0.630745
3410 0.63052
3420 0.630297
3430 0.630076
3440 0.629858
3450 0.629643
3460 0.62943
3470 0.629219
3480 0.62901
3490 0.628804
3500 0.6286
3510 0.628399
3520 0.6282
3530 0.628003
3540 0.627809
3550 0.627616
3560 0.627426
3570 0.627238
3580 0.627052
3590 0.626868
3600 0.626686
3610 0.626506
3620 0.626328
3630 0.626152
3640 0.625977
3650 0.625804
3660 0.625633
3670 0.625463
3680 0.625295
3690 0.625129
3700 0.624963
3710 0.6248
3720 0.624637
3730 0.624476
3740 0.624316
3750 0.624157
3760 0.623999
3770 0.623842
3780 0.623686
3790 0.623532
3800 0.623378
3810 0.623225
3820 0.623073
3830 0.622922
3840 0.622772
3850 0.622622
3860 0.622474
3870 0.622326
3880 0.622178
3890 0.622032
3900 0.621886
3910 0.62174
3920 0.621595
3930 0.62145
3940 0.621306
3950 0.621162
3960 0.621019
3970 0.620875
3980 0.620732
3990 0.620589
4000 0.620446
4010 0.620303
4020 0.620161
4030 0.620018
4040 0.619876
4050 0.619733
4060 0.619591
4070 0.619448
4080 0.619306
4090 0.619164
4100 0.619021
4110 0.618878
4120 0.618736
4130 0.618593
4140 0.61845
4150 0.618307
4160 0.618164
4170 0.618021
4180 0.617878
4190 0.617734
4200 0.617591
4210 0.617447
4220 0.617303
4230 0.617159
4240 0.617015
4250 0.616871
4260 0.616726
4270 0.616581
4280 0.616436
4290 0.616291
4300 0.616146
4310 0.616
4320 0.615855
4330 0.615709
4340 0.615562
4350 0.615416
4360 0.615269
4370 0.615122
4380 0.614974
4390 0.614827
4400 0.614679
4410 0.61453
4420 0.614381
4430 0.614232
4440 0.614083
4450 0.613933
4460 0.613782
4470 0.613631
4480 0.61348
4490 0.613328
4500 0.613176
4510 0.613023
4520 0.612869
4530 0.612715
4540 0.61256
4550 0.612404
4560 0.612248
4570 0.61209
4580 0.611932
4590 0.611773
4600 0.611614
4610 0.611453
4620 0.611291
4630 0.611128
4640 0.610964
4650 0.6108
4660 0.610634
4670 0.610467
4680 0.610298
4690 0.610129
4700 0.609959
4710 0.609787
4720 0.609615
4730 0.609441
4740 0.609266
4750 0.60909
4760 0.608914
4770 0.608736
4780 0.608557
4790 0.608378
4800 0.608198
4810 0.608017
4820 0.607835
4830 0.607653
4840 0.60747
4850 0.607286
4860 0.607103
4870 0.606918
4880 0.606734
4890 0.606549
4900 0.606364
4910 0.606179
4920 0.605994
4930 0.605809
4940 0.605624
4950 0.605438
4960 0.605253
4970 0.605069
4980 0.604884
4990 0.604699
5000 0.604515
5010 0.604331
5020 0.604148
5030 0.603965
5040 0.603782
5050 0.603599
5060 0.603417
5070 0.603235
5080 0.603054
5090 0.602873
5100 0.602692
5110 0.602512
5120 0.602333
5130 0.602154
5140 0.601975
5150 0.601796
5160 0.601618
5170 0.601441
5180 0.601264
5190 0.601087
5200 0.600911
5210 0.600735
5220 0.600559
5230 0.600384
5240 0.600209
5250 0.600034
5260 0.59986
5270 0.599686
5280 0.599512
5290 0.599339
5300 0.599166
5310 0.598993
5320 0.59882
5330 0.598648
5340 0.598475
5350 0.598303
5360 0.598131
5370 0.597959
5380 0.597788
5390 0.597616
5400 0.597445
5410 0.597273
5420 0.597102
5430 0.59693
5440 0.596759
5450 0.596588
5460 0.596417
5470 0.596245
5480 0.596074
5490 0.595903
5500 0.595731
5510 0.59556
5520 0.595388
5530 0.595217
5540 0.595045
5550 0.594873
5560 0.594701
5570 0.594529
5580 0.594357
5590 0.594185
5600 0.594012
5610 0.593839
5620 0.593667
5630 0.593493
5640 0.59332
5650 0.593147
5660 0.592973
5670 0.592799
5680 0.592625
5690 0.592451
5700 0.592276
5710 0.592102
5720 0.591927
5730 0.591751
5740 0.591576
5750 0.5914
5760 0.591224
5770 0.591048
5780 0.590871
5790 0.590695
5800 0.590518
5810 0.59034
5820 0.590163
5830 0.589985
5840 0.589807
5850 0.589629
5860 0.58945
5870 0.589271
5880 0.589092
5890 0.588912
5900 0.588733
5910 0.588553
5920 0.588372
5930 0.588191
5940 0.58801
5950 0.587829
5960 0.587648
5970 0.587466
5980 0.587283
5990 0.587101
6000 0.586918
6010 0.586735
6020 0.586551
6030 0.586367
6040 0.586183
6050 0.585999
6060 0.585814
6070 0.585629
6080 0.585443
6090 0.585257
6100 0.585071
6110 0.584885
6120 0.584698
6130 0.584511
6140 0.584324
6150 0.584136
6160 0.583948
6170 0.58376
6180 0.583572
6190 0.583383
6200 0.583194
6210 0.583004
6220 0.582815
6230 0.582625
6240 0.582434
6250 0.582244
6260 0.582053
6270 0.581862
6280 0.581671
6290 0.58148
6300 0.581288
6310 0.581096
6320 0.580904
6330 0.580712
6340 0.580519
6350 0.580326
6360 0.580134
6370 0.57994
6380 0.579747
6390 0.579554
6400 0.57936
6410 0.579166
6420 0.578973
6430 0.578779
6440 0.578584
6450 0.57839
6460 0.578196
6470 0.578001
6480 0.577806
6490 0.577612
6500 0.577417
6510 0.577222
6520 0.577027
6530 0.576832
6540 0.576636
6550 0.576441
6560 0.576246
6570 0.57605
6580 0.575855
6590 0.575659
6600 0.575464
6610 0.575268
6620 0.575073
6630 0.574877
6640 0.574682
6650 0.574486
6660 0.574291
6670 0.574095
6680 0.573899
6690 0.573704
6700 0.573509
6710 0.573313
6720 0.573118
6730 0.572922
6740 0.572727
6750 0.572532
6760 0.572337
6770 0.572142
6780 0.571947
6790 0.571752
6800 0.571558
6810 0.571363
6820 0.571169
6830 0.570974
6840 0.57078
6850 0.570586
6860 0.570392
6870 0.570198
6880 0.570005
6890 0.569811
6900 0.569618
6910 0.569425
6920 0.569232
6930 0.56904
6940 0.568847
6950 0.568655
6960 0.568463
6970 0.568271
6980 0.56808
6990 0.567889
7000 0.567698
7010 0.567507
7020 0.567317
7030 0.567126
7040 0.566936
7050 0.566747
7060 0.566558
7070 0.566369
7080 0.56618
7090 0.565992
7100 0.565803
7110 0.565616
7120 0.565428
7130 0.565241
7140 0.565055
7150 0.564869
7160 0.564683
7170 0.564497
7180 0.564312
7190 0.564127
7200 0.563943
7210 0.563759
7220 0.563575
7230 0.563392
7240 0.563209
7250 0.563027
7260 0.562845
7270 0.562663
7280 0.562482
7290 0.562302
7300 0.562122
7310 0.561942
7320 0.561763
7330 0.561585
7340 0.561406
7350 0.561229
7360 0.561052
7370 0.560875
7380 0.560699
7390 0.560524
7400 0.560349
7410 0.560174
7420 0.56
7430 0.559827
7440 0.559654
7450 0.559482
7460 0.55931
7470 0.559139
7480 0.558968
7490 0.558798
7500 0.558629
7510 0.55846
7520 0.558291
7530 0.558124
7540 0.557957
7550 0.55779
7560 0.557624
7570 0.557459
7580 0.557294
7590 0.55713
7600 0.556967
7610 0.556804
7620 0.556642
7630 0.55648
7640 0.55632
7650 0.556159
7660 0.556
7670 0.555841
7680 0.555683
7690 0.555525
7700 0.555368
7710 0.555212
7720 0.555056
7730 0.554901
7740 0.554747
7750 0.554593
7760 0.55444
7770 0.554288
7780 0.554137
7790 0.553986
7800 0.553836
7810 0.553686
7820 0.553537
7830 0.553389
7840 0.553242
7850 0.553095
7860 0.552949
7870 0.552804
7880 0.55266
7890 0.552516
7900 0.552373
7910 0.55223
7920 0.552089
7930 0.551948
7940 0.551808
7950 0.551668
7960 0.55153
7970 0.551392
7980 0.551254
7990 0.551118
8000 0.550982
8010 0.550847
8020 0.550713
8030 0.550579
8040 0.550446
8050 0.550314
8060 0.550183
8070 0.550053
8080 0.549923
8090 0.549794
8100 0.549665
8110 0.549538
8120 0.549411
8130 0.549285
8140 0.54916
8150 0.549035
8160 0.548911
8170 0.548788
8180 0.548666
8190 0.548544
8200 0.548423
8210 0.548303
8220 0.548184
8230 0.548066
8240 0.547948
8250 0.547831
8260 0.547715
8270 0.547599
8280 0.547484
8290 0.547371
8300 0.547257
8310 0.547145
8320 0.547033
8330 0.546922
8340 0.546812
8350 0.546703
8360 0.546594
8370 0.546486
8380 0.546379
8390 0.546273
8400 0.546167
8410 0.546062
8420 0.545958
8430 0.545855
8440 0.545752
8450 0.54565
8460 0.545549
8470 0.545449
8480 0.54535
8490 0.545251
8500 0.545153
8510 0.545055
8520 0.544959
8530 0.544863
8540 0.544768
8550 0.544674
8560 0.54458
8570 0.544487
8580 0.544395
8590 0.544304
8600 0.544213
8610 0.544124
8620 0.544034
8630 0.543946
8640 0.543859
8650 0.543772
8660 0.543686
8670 0.5436
8680 0.543516
8690 0.543432
8700 0.543348
8710 0.543266
8720 0.543184
8730 0.543103
8740 0.543023
8750 0.542944
8760 0.542865
8770 0.542787
8780 0.542709
8790 0.542633
8800 0.542557
8810 0.542482
8820 0.542407
8830 0.542334
8840 0.54226
8850 0.542188
8860 0.542117
8870 0.542046
8880 0.541976
8890 0.541906
8900 0.541837
8910 0.541769
8920 0.541702
8930 0.541635
8940 0.541569
8950 0.541504
8960 0.54144
8970 0.541376
8980 0.541313
8990 0.54125
9000 0.541188
9010 0.541127
9020 0.541067
9030 0.541007
9040 0.540948
9050 0.54089
9060 0.540832
9070 0.540775
9080 0.540719
9090 0.540663
9100 0.540609
9110 0.540554
9120 0.540501
9130 0.540448
9140 0.540396
9150 0.540344
9160 0.540293
9170 0.540243
9180 0.540193
9190 0.540144
9200 0.540096
9210 0.540048
9220 0.540001
9230 0.539955
9240 0.53991
9250 0.539864
9260 0.53982
9270 0.539776
9280 0.539733
9290 0.539691
9300 0.539649
9310 0.539608
9320 0.539568
9330 0.539528
9340 0.539488
9350 0.53945
9360 0.539412
9370 0.539375
9380 0.539338
9390 0.539302
9400 0.539266
9410 0.539231
9420 0.539197
9430 0.539164
9440 0.539131
9450 0.539098
9460 0.539066
9470 0.539035
9480 0.539005
9490 0.538975
9500 0.538945
9510 0.538917
9520 0.538888
9530 0.538861
9540 0.538834
9550 0.538807
9560 0.538782
9570 0.538756
9580 0.538732
9590 0.538708
9600 0.538684
9610 0.538661
9620 0.538639
9630 0.538617
9640 0.538596
9650 0.538575
9660 0.538555
9670 0.538536
9680 0.538517
9690 0.538499
9700 0.538481
9710 0.538464
9720 0.538447
9730 0.538431
9740 0.538415
9750 0.5384
9760 0.538386
9770 0.538372
9780 0.538359
9790 0.538346
9800 0.538334
9810 0.538322
9820 0.538311
9830 0.5383
9840 0.53829
9850 0.53828
9860 0.538271
9870 0.538263
9880 0.538255
9890 0.538247
9900 0.53824
9910 0.538234
9920 0.538228
9930 0.538223
9940 0.538218
9950 0.538213
9960 0.538209
9970 0.538206
9980 0.538203
9990 0.538201
10000 0.538199
10010 0.538198
10020 0.538197
10030 0.538197
10040 0.538197
10050 0.538197
10060 0.538198
10070 0.5382
10080 0.538202
10090 0.538205
10100 0.538208
10110 0.538212
10120 0.538216
10130 0.53822
10140 0.538225
10150 0.538231
10160 0.538237
10170 0.538243
10180 0.53825
10190 0.538257
10200 0.538265
10210 0.538273
10220 0.538282
10230 0.538291
10240 0.538301
10250 0.538311
10260 0.538322
10270 0.538333
10280 0.538344
10290 0.538356
10300 0.538368
10310 0.538381
10320 0.538394
10330 0.538408
10340 0.538422
10350 0.538437
10360 0.538452
10370 0.538467
10380 0.538483
10390 0.538499
10400 0.538516
10410 0.538533
10420 0.53855
10430 0.538568
10440 0.538587
10450 0.538605
10460 0.538625
10470 0.538644
10480 0.538664
10490 0.538685
10500 0.538705
10510 0.538727
10520 0.538748
10530 0.53877
10540 0.538793
10550 0.538815
10560 0.538839
10570 0.538862
10580 0.538886
10590 0.538911
10600 0.538935
10610 0.538961
10620 0.538986
10630 0.539012
10640 0.539039
10650 0.539065
10660 0.539093
10670 0.53912
10680 0.539148
10690 0.539176
10700 0.539205
10710 0.539234
10720 0.539263
10730 0.539293
10740 0.539323
10750 0.539354
10760 0.539384
10770 0.539416
10780 0.539447
10790 0.539479
10800 0.539511
10810 0.539544
10820 0.539577
10830 0.53961
10840 0.539644
10850 0.539678
10860 0.539712
10870 0.539747
10880 0.539782
10890 0.539818
10900 0.539853
10910 0.539889
10920 0.539926
10930 0.539963
10940 0.54
10950 0.540037
10960 0.540075
10970 0.540113
10980 0.540152
10990 0.540191
11000 0.54023
11010 0.540269
11020 0.540309
11030 0.540349
11040 0.540389
11050 0.54043
11060 0.540471
11070 0.540512
11080 0.540554
11090 0.540596
11100 0.540638
11110 0.540681
11120 0.540724
11130 0.540767
11140 0.54081
11150 0.540854
11160 0.540898
11170 0.540942
11180 0.540987
11190 0.541032
11200 0.541077
11210 0.541123
11220 0.541169
11230 0.541215
11240 0.541261
11250 0.541308
11260 0.541355
11270 0.541402
11280 0.541449
11290 0.541497
11300 0.541545
11310 0.541593
11320 0.541642
11330 0.541691
11340 0.54174
11350 0.541789
11360 0.541839
11370 0.541889
11380 0.541939
11390 0.54199
11400 0.54204
11410 0.542091
11420 0.542143
11430 0.542194
11440 0.542246
11450 0.542298
11460 0.54235
11470 0.542402
11480 0.542455
11490 0.542508
11500 0.542561
11510 0.542615
11520 0.542668
11530 0.542722
11540 0.542777
11550 0.542831
11560 0.542886
11570 0.542941
11580 0.542996
11590 0.543051
11600 0.543107
11610 0.543162
11620 0.543218
11630 0.543275
11640 0.543331
11650 0.543388
11660 0.543445
11670 0.543502
11680 0.543559
11690 0.543617
11700 0.543675
11710 0.543733
11720 0.543791
11730 0.543849
11740 0.543908
11750 0.543967
11760 0.544026
11770 0.544085
11780 0.544145
11790 0.544205
11800 0.544265
11810 0.544325
11820 0.544385
11830 0.544446
11840 0.544506
11850 0.544567
11860 0.544628
11870 0.54469
11880 0.544751
11890 0.544813
11900 0.544875
11910 0.544937
11920 0.544999
11930 0.545061
11940 0.545124
11950 0.545187
11960 0.54525
11970 0.545313
11980 0.545376
11990 0.54544
12000 0.545503
12010 0.545567
12020 0.545631
12030 0.545695
12040 0.54576
12050 0.545824
12060 0.545889
12070 0.545953
12080 0.546018
12090 0.546084
12100 0.546149
12110 0.546214
12120 0.54628
12130 0.546346
12140 0.546412
12150 0.546478
12160 0.546544
12170 0.54661
12180 0.546677
12190 0.546743
12200 0.54681
12210 0.546877
12220 0.546944
12230 0.547011
12240 0.547079
12250 0.547146
12260 0.547214
12270 0.547282
12280 0.54735
12290 0.547418
12300 0.547486
12310 0.547554
12320 0.547623
12330 0.547691
12340 0.54776
12350 0.547829
12360 0.547898
12370 0.547967
12380 0.548036
12390 0.548106
12400 0.548175
12410 0.548245
12420 0.548315
12430 0.548384
12440 0.548454
12450 0.548524
12460 0.548595
12470 0.548665
12480 0.548735
12490 0.548806
12500 0.548876
12510 0.548947
12520 0.549018
12530 0.549089
12540 0.54916
12550 0.549231
12560 0.549302
12570 0.549374
12580 0.549445
12590 0.549517
12600 0.549588
12610 0.54966
12620 0.549732
12630 0.549804
12640 0.549876
12650 0.549948
12660 0.550021
12670 0.550093
12680 0.550165
12690 0.550238
12700 0.550311
12710 0.550383
12720 0.550456
12730 0.550529
12740 0.550602
12750 0.550675
12760 0.550748
12770 0.550822
12780 0.550895
12790 0.550968
12800 0.551042
12810 0.551115
12820 0.551189
12830 0.551263
12840 0.551337
12850 0.551411
12860 0.551485
12870 0.551559
12880 0.551633
12890 0.551707
12900 0.551782
12910 0.551856
12920 0.55193
12930 0.552005
12940 0.55208
12950 0.552154
12960 0.552229
12970 0.552304
12980 0.552379
12990 0.552454
13000 0.552529
13010 0.552604
13020 0.552679
13030 0.552755
13040 0.55283
13050 0.552905
13060 0.552981
13070 0.553056
13080 0.553132
13090 0.553208
13100 0.553283
13110 0.553359
13120 0.553435
13130 0.553511
13140 0.553587
13150 0.553663
13160 0.553739
13170 0.553815
13180 0.553891
13190 0.553967
13200 0.554044
13210 0.55412
13220 0.554197
13230 0.554273
13240 0.55435
13250 0.554426
13260 0.554503
13270 0.55458
13280 0.554657
13290 0.554733
13300 0.55481
13310 0.554887
13320 0.554964
13330 0.555041
13340 0.555118
13350 0.555196
13360 0.555273
13370 0.55535
13380 0.555427
13390 0.555505
13400 0.555582
13410 0.555659
13420 0.555737
13430 0.555814
13440 0.555892
13450 0.55597
13460 0.556047
13470 0.556125
13480 0.556203
13490 0.55628
13500 0.556358
13510 0.556436
13520 0.556514
13530 0.556592
13540 0.55667
13550 0.556748
13560 0.556826
13570 0.556904
13580 0.556982
13590 0.55706
13600 0.557139
13610 0.557217
13620 0.557295
13630 0.557374
13640 0.557452
13650 0.55753
13660 0.557609
13670 0.557687
13680 0.557766
13690 0.557845
13700 0.557923
13710 0.558002
13720 0.558081
13730 0.558159
13740 0.558238
13750 0.558317
13760 0.558396
13770 0.558475
13780 0.558553
13790 0.558632
13800 0.558711
13810 0.55879
13820 0.558869
13830 0.558948
13840 0.559027
13850 0.559107
13860 0.559186
13870 0.559265
13880 0.559344
13890 0.559423
13900 0.559503
13910 0.559582
13920 0.559661
13930 0.559741
13940 0.55982
13950 0.559899
13960 0.559979
13970 0.560058
13980 0.560138
13990 0.560217
14000 0.560297
14010 0.560376
14020 0.560456
14030 0.560536
14040 0.560615
14050 0.560695
14060 0.560774
14070 0.560854
14080 0.560934
14090 0.561014
14100 0.561093
14110 0.561173
14120 0.561253
14130 0.561333
14140 0.561413
14150 0.561493
14160 0.561573
14170 0.561652
14180 0.561732
14190 0.561812
14200 0.561892
14210 0.561972
14220 0.562052
14230 0.562132
14240 0.562212
14250 0.562293
14260 0.562373
14270 0.562453
14280 0.562533
14290 0.562613
14300 0.562693
14310 0.562773
14320 0.562854
14330 0.562934
14340 0.563014
14350 0.563094
14360 0.563175
14370 0.563255
14380 0.563335
14390 0.563416
14400 0.563496
14410 0.563576
14420 0.563657
14430 0.563737
14440 0.563818
14450 0.563898
14460 0.563978
14470 0.564059
14480 0.564139
14490 0.56422
14500 0.5643
14510 0.564381
14520 0.564461
14530 0.564542
14540 0.564622
14550 0.564703
14560 0.564784
14570 0.564864
14580 0.564945
14590 0.565025
14600 0.565106
14610 0.565187
14620 0.565267
14630 0.565348
14640 0.565429
14650 0.565509
14660 0.56559
14670 0.565671
14680 0.565752
14690 0.565832
14700 0.565913
14710 0.565994
14720 0.566075
14730 0.566156
14740 0.566236
14750 0.566317
14760 0.566398
14770 0.566479
14780 0.56656
14790 0.56664
14800 0.566721
14810 0.566802
14820 0.566883
14830 0.566964
14840 0.567045
14850 0.567126
14860 0.567207
14870 0.567288
14880 0.567369
14890 0.56745
14900 0.567531
14910 0.567612
14920 0.567693
14930 0.567774
14940 0.567855
14950 0.567936
14960 0.568017
14970 0.568098
14980 0.568179
14990 0.56826
15000 0.568341
15010 0.568422
15020 0.568503
15030 0.568584
15040 0.568665
15050 0.568746
15060 0.568827
15070 0.568908
15080 0.568989
15090 0.569071
15100 0.569152
15110 0.569233
15120 0.569314
15130 0.569395
15140 0.569476
15150 0.569557
15160 0.569639
15170 0.56972
15180 0.569801
15190 0.569882
15200 0.569963
15210 0.570045
15220 0.570126
15230 0.570207
15240 0.570288
15250 0.57037
15260 0.570451
15270 0.570532
15280 0.570614
15290 0.570695
15300 0.570776
15310 0.570857
15320 0.570939
15330 0.57102
15340 0.571102
15350 0.571183
15360 0.571264
15370 0.571346
15380 0.571427
15390 0.571508
15400 0.57159
15410 0.571671
15420 0.571753
15430 0.571834
15440 0.571916
15450 0.571997
15460 0.572079
15470 0.57216
15480 0.572241
15490 0.572323
15500 0.572404
15510 0.572486
15520 0.572567
15530 0.572649
15540 0.572731
15550 0.572812
15560 0.572894
15570 0.572975
15580 0.573057
15590 0.573138
15600 0.57322
15610 0.573301
15620 0.573383
15630 0.573465
15640 0.573546
15650 0.573628
15660 0.573709
15670 0.573791
15680 0.573872
15690 0.573954
15700 0.574036
15710 0.574117
15720 0.574199
15730 0.574281
15740 0.574362
15750 0.574444
15760 0.574526
15770 0.574607
15780 0.574689
15790 0.574771
15800 0.574853
15810 0.574934
15820 0.575016
15830 0.575098
15840 0.575179
15850 0.575261
15860 0.575343
15870 0.575425
15880 0.575506
15890 0.575588
15900 0.57567
15910 0.575752
15920 0.575833
15930 0.575915
15940 0.575997
15950 0.576079
15960 0.57616
15970 0.576242
15980 0.576324
15990 0.576406
16000 0.576487
16010 0.576569
16020 0.576651
16030 0.576733
16040 0.576814
16050 0.576896
16060 0.576978
16070 0.57706
16080 0.577142
16090 0.577223
16100 0.577305
16110 0.577387
16120 0.577469
16130 0.577551
16140 0.577632
16150 0.577714
16160 0.577796
16170 0.577878
16180 0.57796
16190 0.578041
16200 0.578123
16210 0.578205
16220 0.578287
16230 0.578369
16240 0.57845
16250 0.578532
16260 0.578614
16270 0.578696
16280 0.578778
16290 0.57886
16300 0.578941
16310 0.579023
16320 0.579105
16330 0.579187
16340 0.579269
16350 0.579351
16360 0.579432
16370 0.579514
16380 0.579596
16390 0.579678
16400 0.57976
16410 0.579842
16420 0.579923
16430 0.580005
16440 0.580087
16450 0.580169
16460 0.580251
16470 0.580333
16480 0.580415
16490 0.580496
16500 0.580578
16510 0.58066
16520 0.580742
16530 0.580824
16540 0.580906
16550 0.580988
16560 0.58107
16570 0.581151
16580 0.581233
16590 0.581315
16600 0.581397
16610 0.581479
16620 0.581561
16630 0.581643
16640 0.581725
16650 0.581806
16660 0.581888
16670 0.58197
16680 0.582052
16690 0.582134
16700 0.582216
16710 0.582298
16720 0.58238
16730 0.582462
16740 0.582543
16750 0.582625
16760 0.582707
16770 0.582789
16780 0.582871
16790 0.582953
16800 0.583035
16810 0.583117
16820 0.583199
16830 0.58328
16840 0.583362
16850 0.583444
16860 0.583526
16870 0.583608
16880 0.58369
16890 0.583772
16900 0.583854
16910 0.583936
16920 0.584018
16930 0.584099
16940 0.584181
16950 0.584263
16960 0.584345
16970 0.584427
16980 0.584509
16990 0.584591
17000 0.584673
17010 0.584755
17020 0.584837
17030 0.584919
17040 0.585001
17050 0.585083
17060 0.585165
17070 0.585247
17080 0.585328
17090 0.58541
17100 0.585492
17110 0.585574
17120 0.585656
17130 0.585738
17140 0.58582
17150 0.585902
17160 0.585984
17170 0.586066
17180 0.586148
17190 0.58623
17200 0.586312
17210 0.586394
17220 0.586476
17230 0.586557
17240 0.586639
17250 0.586721
17260 0.586803
17270 0.586885
17280 0.586967
17290 0.587049
17300 0.587131
17310 0.587213
17320 0.587295
17330 0.587377
17340 0.587458
17350 0.58754
17360 0.587622
17370 0.587704
17380 0.587786
17390 0.587868
17400 0.58795
17410 0.588031
17420 0.588113
17430 0.588195
17440 0.588277
17450 0.588359
17460 0.588441
17470 0.588522
17480 0.588604
17490 0.588686
17500 0.588768
17510 0.58885
17520 0.588931
17530 0.589013
17540 0.589095
17550 0.589177
17560 0.589259
17570 0.58934
17580 0.589422
17590 0.589504
17600 0.589585
17610 0.589667
17620 0.589749
17630 0.589831
17640 0.589912
17650 0.589994
17660 0.590076
17670 0.590157
17680 0.590239
17690 0.590321
17700 0.590402
17710 0.590484
17720 0.590566
17730 0.590647
17740 0.590729
17750 0.59081
17760 0.590892
17770 0.590974
17780 0.591055
17790 0.591137
17800 0.591218
17810 0.5913
17820 0.591381
17830 0.591463
17840 0.591545
17850 0.591626
17860 0.591708
17870 0.591789
17880 0.591871
17890 0.591952
17900 0.592033
17910 0.592115
17920 0.592196
17930 0.592278
17940 0.592359
17950 0.592441
17960 0.592522
17970 0.592603
17980 0.592685
17990 0.592766
18000 0.592847
18010 0.592929
18020 0.59301
18030 0.593091
18040 0.593173
18050 0.593254
18060 0.593335
18070 0.593416
18080 0.593498
18090 0.593579
18100 0.59366
18110 0.593741
18120 0.593823
18130 0.593904
18140 0.593985
18150 0.594066
18160 0.594147
18170 0.594228
18180 0.594309
18190 0.59439
18200 0.594472
18210 0.594553
18220 0.594634
18230 0.594715
18240 0.594796
18250 0.594877
18260 0.594958
18270 0.595038
18280 0.595119
18290 0.5952
18300 0.595281
18310 0.595362
18320 0.595443
18330 0.595524
18340 0.595604
18350 0.595685
18360 0.595766
18370 0.595847
18380 0.595927
18390 0.596008
18400 0.596089
18410 0.59617
18420 0.59625
18430 0.596331
18440 0.596411
18450 0.596492
18460 0.596573
18470 0.596653
18480 0.596734
18490 0.596814
18500 0.596895
18510 0.596975
18520 0.597056
18530 0.597136
18540 0.597217
18550 0.597297
18560 0.597378
18570 0.597458
18580 0.597539
18590 0.597619
18600 0.597699
18610 0.59778
18620 0.59786
18630 0.59794
18640 0.598021
18650 0.598101
18660 0.598181
18670 0.598261
18680 0.598342
18690 0.598422
18700 0.598502
18710 0.598582
18720 0.598662
18730 0.598743
18740 0.598823
18750 0.598903
18760 0.598983
18770 0.599063
18780 0.599143
18790 0.599223
18800 0.599303
18810 0.599383
18820 0.599463
18830 0.599543
18840 0.599623
18850 0.599703
18860 0.599783
18870 0.599863
18880 0.599943
18890 0.600022
18900 0.600102
18910 0.600182
18920 0.600262
18930 0.600342
18940 0.600421
18950 0.600501
18960 0.600581
18970 0.60066
18980 0.60074
18990 0.600819
19000 0.600899
19010 0.600979
19020 0.601058
19030 0.601138
19040 0.601217
19050 0.601297
19060 0.601376
19070 0.601455
19080 0.601535
19090 0.601614
19100 0.601693
19110 0.601773
19120 0.601852
19130 0.601931
19140 0.60201
19150 0.60209
19160 0.602169
19170 0.602248
19180 0.602327
19190 0.602406
19200 0.602485
19210 0.602564
19220 0.602643
19230 0.602722
19240 0.602801
19250 0.60288
19260 0.602959
19270 0.603038
19280 0.603116
19290 0.603195
19300 0.603274
19310 0.603353
19320 0.603431
19330 0.60351
19340 0.603589
19350 0.603667
19360 0.603746
19370 0.603824
19380 0.603903
19390 0.603981
19400 0.60406
19410 0.604138
19420 0.604217
19430 0.604295
19440 0.604373
19450 0.604452
19460 0.60453
19470 0.604608
19480 0.604686
19490 0.604764
19500 0.604843
19510 0.604921
19520 0.604999
19530 0.605077
19540 0.605155
19550 0.605233
19560 0.605311
19570 0.605389
19580 0.605466
19590 0.605544
19600 0.605622
19610 0.6057
19620 0.605778
19630 0.605855
19640 0.605933
19650 0.606011
19660 0.606088
19670 0.606166
19680 0.606243
19690 0.606321
19700 0.606398
19710 0.606476
19720 0.606553
19730 0.606631
19740 0.606708
19750 0.606785
19760 0.606862
19770 0.60694
19780 0.607017
19790 0.607094
19800 0.607171
19810 0.607248
19820 0.607325
19830 0.607402
19840 0.607479
19850 0.607556
19860 0.607633
19870 0.60771
19880 0.607787
19890 0.607863
19900 0.60794
19910 0.608017
19920 0.608094
19930 0.60817
19940 0.608247
19950 0.608323
19960 0.6084
19970 0.608476
19980 0.608553
19990 0.608629
20000 0.608706
20010 0.608782
20020 0.608858
20030 0.608934
20040 0.609011
20050 0.609087
20060 0.609163
20070 0.609239
20080 0.609315
20090 0.609391
20100 0.609467
20110 0.609543
20120 0.609619
20130 0.609695
20140 0.609771
20150 0.609846
20160 0.609922
20170 0.609998
20180 0.610073
20190 0.610149
20200 0.610225
20210 0.6103
20220 0.610376
20230 0.610451
20240 0.610527
20250 0.610602
20260 0.610677
20270 0.610753
20280 0.610828
20290 0.610903
20300 0.610978
20310 0.611053
20320 0.611128
20330 0.611203
20340 0.611278
20350 0.611353
20360 0.611428
20370 0.611503
20380 0.611578
20390 0.611653
20400 0.611727
20410 0.611802
20420 0.611877
20430 0.611951
20440 0.612026
20450 0.612101
20460 0.612175
20470 0.612249
20480 0.612324
20490 0.612398
20500 0.612473
20510 0.612547
20520 0.612621
20530 0.612695
20540 0.612769
20550 0.612844
20560 0.612918
20570 0.612992
20580 0.613066
20590 0.61314
20600 0.613214
20610 0.613287
20620 0.613361
20630 0.613435
20640 0.613509
20650 0.613583
20660 0.613656
20670 0.61373
20680 0.613803
20690 0.613877
20700 0.61395
20710 0.614024
20720 0.614097
20730 0.614171
20740 0.614244
20750 0.614317
20760 0.61439
20770 0.614463
20780 0.614537
20790 0.61461
20800 0.614683
20810 0.614756
20820 0.614829
20830 0.614902
20840 0.614974
20850 0.615047
20860 0.61512
20870 0.615193
20880 0.615265
20890 0.615338