10 0.273038
20 0.233381
30 0.206438
40 0.187785
50 0.174559
60 0.164996
70 0.157985
80 0.152805
90 0.148968
100 0.146133
110 0.144046
120 0.142501
130 0.141321
140 0.140427
150 0.139959
160 0.139786
170 0.139845
180 0.140091
190 0.140494
200 0.141035
210 0.141704
220 0.142497
230 0.143415
240 0.144463
250 0.145649
260 0.146982
270 0.148477
280 0.150148
290 0.152012
300 0.154089
310 0.156402
320 0.158974
330 0.161832
340 0.165005
350 0.168527
360 0.17243
370 0.176753
380 0.181534
390 0.186822
400 0.19265
410 0.199083
420 0.206181
430 0.213992
440 0.222593
450 0.232071
460 0.242521
470 0.254054
480 0.266781
490 0.28081
500 0.296394
510 0.313515
520 0.33246
530 0.353391
540 0.376578
550 0.402265
560 0.430721
570 0.462193
580 0.496885
590 0.534875
600 0.576143
610 0.623429
620 0.684979
630 0.774496
640 0.89732
650 1.0435
660 1.19931
670 1.35389
680 1.49612
690 1.60817
700 1.66689
710 1.65444
720 1.56991
730 1.43633
740 1.29405
750 1.17696
760 1.09882
770 1.05775
780 1.04522
790 1.0511
800 1.06567
810 1.08204
820 1.09546
830 1.10321
840 1.10458
850 1.10042
860 1.09253
870 1.083
880 1.07355
890 1.06533
900 1.0588
910 1.05395
920 1.05043
930 1.04777
940 1.04551
950 1.04329
960 1.04086
970 1.03814
980 1.03511
990 1.03186
1000 1.02848
1010 1.02507
1020 1.0217
1030 1.01842
1040 1.01525
1050 1.01217
1060 1.00918
1070 1.00625
1080 1.00335
1090 1.00048
1100 0.997621
1110 0.994767
1120 0.991922
1130 0.989087
1140 0.986269
1150 0.983471
1160 0.980696
1170 0.977947
1180 0.975224
1190 0.972527
1200 0.969855
1210 0.967207
1220 0.964581
1230 0.961978
1240 0.959396
1250 0.956835
1260 0.954295
1270 0.951776
1280 0.949277
1290 0.946799
1300 0.944342
1310 0.941906
1320 0.939491
1330 0.937096
1340 0.934722
1350 0.932368
1360 0.930034
1370 0.92772
1380 0.925425
1390 0.923149
1400 0.920892
1410 0.918654
1420 0.916434
1430 0.914233
1440 0.912051
1450 0.909886
1460 0.90774
1470 0.905612
1480 0.903502
1490 0.901409
1500 0.899333
1510 0.897275
1520 0.895233
1530 0.893208
1540 0.891199
1550 0.889206
1560 0.887229
1570 0.885268
1580 0.883322
1590 0.881391
1600 0.879476
1610 0.877575
1620 0.875689
1630 0.873818
1640 0.871961
1650 0.870118
1660 0.868289
1670 0.866475
1680 0.864674
1690 0.862887
1700 0.861114
1710 0.859354
1720 0.857607
1730 0.855873
1740 0.854153
1750 0.852445
1760 0.850749
1770 0.849067
1780 0.847396
1790 0.845738
1800 0.844091
1810 0.842457
1820 0.840834
1830 0.839223
1840 0.837624
1850 0.836035
1860 0.834459
1870 0.832893
1880 0.831339
1890 0.829795
1900 0.828263
1910 0.826741
1920 0.82523
1930 0.82373
1940 0.82224
1950 0.820761
1960 0.819291
1970 0.817832
1980 0.816383
1990 0.814944
2000 0.813515
2010 0.812096
2020 0.810686
2030 0.809287
2040 0.807896
2050 0.806515
2060 0.805144
2070 0.803782
2080 0.802429
2090 0.801085
2100 0.79975
2110 0.798424
2120 0.797107
2130 0.795799
2140 0.7945
2150 0.793209
2160 0.791927
2170 0.790653
2180 0.789388
2190 0.78813
2200 0.786881
2210 0.785641
2220 0.784408
2230 0.783183
2240 0.781966
2250 0.780757
2260 0.779556
2270 0.778363
2280 0.777177
2290 0.775998
2300 0.774828
2310 0.773664
2320 0.772508
2330 0.77136
2340 0.770218
2350 0.769084
2360 0.767957
2370 0.766837
2380 0.765724
2390 0.764618
2400 0.763518
2410 0.762426
2420 0.76134
2430 0.760261
2440 0.759189
2450 0.758123
2460 0.757064
2470 0.756011
2480 0.754964
2490 0.753924
2500 0.75289
2510 0.751862
2520 0.750841
2530 0.749825
2540 0.748816
2550 0.747813
2560 0.746815
2570 0.745823
2580 0.744838
2590 0.743858
2600 0.742883
2610 0.741915
2620 0.740952
2630 0.739994
2640 0.739042
2650 0.738096
2660 0.737155
2670 0.736219
2680 0.735289
2690 0.734364
2700 0.733444
2710 0.73253
2720 0.731621
2730 0.730717
2740 0.729818
2750 0.728924
2760 0.728034
2770 0.72715
2780 0.726271
2790 0.725396
2800 0.724526
2810 0.723661
2820 0.722801
2830 0.721945
2840 0.721094
2850 0.720247
2860 0.719405
2870 0.718567
2880 0.717734
2890 0.716905
2900 0.716081
2910 0.715261
2920 0.714445
2930 0.713634
2940 0.712827
2950 0.712024
2960 0.711225
2970 0.710431
2980 0.709641
2990 0.708854
3000 0.708072
3010 0.707294
3020 0.706521
3030 0.705751
3040 0.704985
3050 0.704223
3060 0.703465
3070 0.70271
3080 0.70196
3090 0.701214
3100 0.700471
3110 0.699732
3120 0.698997
3130 0.698265
3140 0.697538
3150 0.696813
3160 0.696093
3170 0.695376
3180 0.694663
3190 0.693953
3200 0.693247
3210 0.692545
3220 0.691846
3230 0.69115
3240 0.690458
3250 0.689769
3260 0.689084
3270 0.688402
3280 0.687723
3290 0.687048
3300 0.686376
3310 0.685707
3320 0.685042
3330 0.68438
3340 0.683721
3350 0.683065
3360 0.682413
3370 0.681763
3380 0.681117
3390 0.680474
3400 0.679834
3410 0.679198
3420 0.678564
3430 0.677933
3440 0.677306
3450 0.676681
3460 0.67606
3470 0.675441
3480 0.674826
3490 0.674213
3500 0.673603
3510 0.672996
3520 0.672392
3530 0.671791
3540 0.671193
3550 0.670597
3560 0.670004
3570 0.669414
3580 0.668827
3590 0.668242
3600 0.667661
3610 0.667082
3620 0.666505
3630 0.665931
3640 0.66536
3650 0.664792
3660 0.664226
3670 0.663663
3680 0.663102
3690 0.662544
3700 0.661989
3710 0.661436
3720 0.660886
3730 0.660338
3740 0.659792
3750 0.65925
3760 0.658709
3770 0.658171
3780 0.657636
3790 0.657103
3800 0.656572
3810 0.656044
3820 0.655518
3830 0.654995
3840 0.654474
3850 0.653955
3860 0.653439
3870 0.652924
3880 0.652413
3890 0.651903
3900 0.651396
3910 0.650891
3920 0.650389
3930 0.649888
3940 0.64939
3950 0.648894
3960 0.6484
3970 0.647908
3980 0.647419
3990 0.646932
4000 0.646446
4010 0.645963
4020 0.645482
4030 0.645004
4040 0.644527
4050 0.644053
4060 0.64358
4070 0.64311
4080 0.642642
4090 0.642175
4100 0.641711
4110 0.641249
4120 0.640789
4130 0.640331
4140 0.639875
4150 0.639421
4160 0.638969
4170 0.638519
4180 0.638071
4190 0.637625
4200 0.637181
4210 0.636739
4220 0.636299
4230 0.635861
4240 0.635425
4250 0.634991
4260 0.634558
4270 0.634128
4280 0.633699
4290 0.633273
4300 0.632848
4310 0.632425
4320 0.632004
4330 0.631585
4340 0.631167
4350 0.630751
4360 0.630338
4370 0.629926
4380 0.629515
4390 0.629107
4400 0.6287
4410 0.628295
4420 0.627892
4430 0.62749
4440 0.627091
4450 0.626693
4460 0.626296
4470 0.625902
4480 0.625509
4490 0.625117
4500 0.624728
4510 0.62434
4520 0.623954
4530 0.623569
4540 0.623187
4550 0.622805
4560 0.622426
4570 0.622048
4580 0.621672
4590 0.621297
4600 0.620924
4610 0.620553
4620 0.620183
4630 0.619815
4640 0.619448
4650 0.619083
4660 0.618719
4670 0.618358
4680 0.617997
4690 0.617638
4700 0.617281
4710 0.616926
4720 0.616571
4730 0.616219
4740 0.615868
4750 0.615518
4760 0.61517
4770 0.614824
4780 0.614479
4790 0.614135
4800 0.613793
4810 0.613452
4820 0.613113
4830 0.612776
4840 0.61244
4850 0.612105
4860 0.611772
4870 0.61144
4880 0.61111
4890 0.610781
4900 0.610453
4910 0.610127
4920 0.609803
4930 0.60948
4940 0.609158
4950 0.608838
4960 0.608519
4970 0.608201
4980 0.607885
4990 0.60757
5000 0.607257
5010 0.606945
5020 0.606634
5030 0.606325
5040 0.606017
5050 0.605711
5060 0.605406
5070 0.605102
5080 0.604799
5090 0.604498
5100 0.604198
5110 0.6039
5120 0.603603
5130 0.603307
5140 0.603013
5150 0.602719
5160 0.602428
5170 0.602137
5180 0.601848
5190 0.60156
5200 0.601274
5210 0.600988
5220 0.600704
5230 0.600422
5240 0.60014
5250 0.59986
5260 0.599581
5270 0.599304
5280 0.599027
5290 0.598752
5300 0.598478
5310 0.598205
5320 0.597934
5330 0.597664
5340 0.597395
5350 0.597127
5360 0.596861
5370 0.596595
5380 0.596331
5390 0.596068
5400 0.595806
5410 0.595546
5420 0.595287
5430 0.595028
5440 0.594771
5450 0.594515
5460 0.594261
5470 0.594007
5480 0.593755
5490 0.593504
5500 0.593254
5510 0.593005
5520 0.592757
5530 0.59251
5540 0.592265
5550 0.59202
5560 0.591777
5570 0.591535
5580 0.591294
5590 0.591054
5600 0.590816
5610 0.590578
5620 0.590342
5630 0.590107
5640 0.589872
5650 0.589639
5660 0.589408
5670 0.589177
5680 0.588947
5690 0.588718
5700 0.588491
5710 0.588264
5720 0.588039
5730 0.587815
5740 0.587592
5750 0.58737
5760 0.587149
5770 0.586929
5780 0.58671
5790 0.586492
5800 0.586276
5810 0.58606
5820 0.585845
5830 0.585632
5840 0.585419
5850 0.585208
5860 0.584998
5870 0.584788
5880 0.58458
5890 0.584373
5900 0.584167
5910 0.583961
5920 0.583757
5930 0.583554
5940 0.583352
5950 0.583151
5960 0.582951
5970 0.582751
5980 0.582553
5990 0.582356
6000 0.58216
6010 0.581965
6020 0.581771
6030 0.581578
6040 0.581386
6050 0.581195
6060 0.581005
6070 0.580815
6080 0.580627
6090 0.58044
6100 0.580254
6110 0.580069
6120 0.579885
6130 0.579701
6140 0.579519
6150 0.579338
6160 0.579157
6170 0.578978
6180 0.578799
6190 0.578622
6200 0.578445
6210 0.57827
6220 0.578095
6230 0.577921
6240 0.577748
6250 0.577577
6260 0.577406
6270 0.577236
6280 0.577067
6290 0.576898
6300 0.576731
6310 0.576565
6320 0.576399
6330 0.576235
6340 0.576071
6350 0.575909
6360 0.575747
6370 0.575586
6380 0.575426
6390 0.575267
6400 0.575109
6410 0.574952
6420 0.574795
6430 0.57464
6440 0.574485
6450 0.574332
6460 0.574179
6470 0.574027
6480 0.573876
6490 0.573726
6500 0.573576
6510 0.573428
6520 0.57328
6530 0.573133
6540 0.572987
6550 0.572842
6560 0.572698
6570 0.572555
6580 0.572412
6590 0.57227
6600 0.57213
6610 0.571989
6620 0.57185
6630 0.571712
6640 0.571574
6650 0.571438
6660 0.571302
6670 0.571167
6680 0.571032
6690 0.570899
6700 0.570766
6710 0.570634
6720 0.570503
6730 0.570373
6740 0.570244
6750 0.570115
6760 0.569987
6770 0.56986
6780 0.569734
6790 0.569609
6800 0.569484
6810 0.56936
6820 0.569237
6830 0.569115
6840 0.568994
6850 0.568873
6860 0.568753
6870 0.568634
6880 0.568516
6890 0.568399
6900 0.568282
6910 0.568166
6920 0.568051
6930 0.567936
6940 0.567823
6950 0.56771
6960 0.567598
6970 0.567487
6980 0.567376
6990 0.567266
7000 0.567157
7010 0.567049
7020 0.566941
7030 0.566834
7040 0.566728
7050 0.566623
7060 0.566518
7070 0.566415
7080 0.566311
7090 0.566209
7100 0.566107
7110 0.566006
7120 0.565906
7130 0.565807
7140 0.565708
7150 0.56561
7160 0.565513
7170 0.565416
7180 0.56532
7190 0.565225
7200 0.565131
7210 0.565037
7220 0.564944
7230 0.564851
7240 0.56476
7250 0.564669
7260 0.564579
7270 0.564489
7280 0.5644
7290 0.564312
7300 0.564225
7310 0.564138
7320 0.564052
7330 0.563966
7340 0.563881
7350 0.563797
7360 0.563714
7370 0.563631
7380 0.563549
7390 0.563468
7400 0.563387
7410 0.563307
7420 0.563228
7430 0.563149
7440 0.563071
7450 0.562994
7460 0.562917
7470 0.562841
7480 0.562766
7490 0.562691
7500 0.562617
7510 0.562543
7520 0.562471
7530 0.562398
7540 0.562327
7550 0.562256
7560 0.562186
7570 0.562116
7580 0.562047
7590 0.561979
7600 0.561911
7610 0.561844
7620 0.561778
7630 0.561712
7640 0.561647
7650 0.561582
7660 0.561518
7670 0.561455
7680 0.561392
7690 0.56133
7700 0.561269
7710 0.561208
7720 0.561148
7730 0.561088
7740 0.561029
7750 0.560971
7760 0.560913
7770 0.560856
7780 0.560799
7790 0.560743
7800 0.560688
7810 0.560633
7820 0.560579
7830 0.560525
7840 0.560472
7850 0.56042
7860 0.560368
7870 0.560317
7880 0.560266
7890 0.560216
7900 0.560166
7910 0.560118
7920 0.560069
7930 0.560022
7940 0.559974
7950 0.559928
7960 0.559882
7970 0.559836
7980 0.559791
7990 0.559747
8000 0.559703
8010 0.55966
8020 0.559618
8030 0.559576
8040 0.559534
8050 0.559493
8060 0.559453
8070 0.559413
8080 0.559374
8090 0.559335
8100 0.559297
8110 0.559259
8120 0.559222
8130 0.559185
8140 0.559149
8150 0.559114
8160 0.559079
8170 0.559044
8180 0.55901
8190 0.558977
8200 0.558944
8210 0.558912
8220 0.55888
8230 0.558849
8240 0.558818
8250 0.558788
8260 0.558758
8270 0.558729
8280 0.5587
8290 0.558672
8300 0.558644
8310 0.558617
8320 0.55859
8330 0.558564
8340 0.558539
8350 0.558514
8360 0.558489
8370 0.558465
8380 0.558441
8390 0.558418
8400 0.558396
8410 0.558374
8420 0.558352
8430 0.558331
8440 0.55831
8450 0.55829
8460 0.558271
8470 0.558252
8480 0.558233
8490 0.558215
8500 0.558197
8510 0.55818
8520 0.558163
8530 0.558147
8540 0.558131
8550 0.558116
8560 0.558101
8570 0.558087
8580 0.558073
8590 0.55806
8600 0.558047
8610 0.558034
8620 0.558022
8630 0.558011
8640 0.558
8650 0.557989
8660 0.557979
8670 0.557969
8680 0.55796
8690 0.557951
8700 0.557943
8710 0.557935
8720 0.557928
8730 0.557921
8740 0.557914
8750 0.557908
8760 0.557903
8770 0.557897
8780 0.557893
8790 0.557888
8800 0.557885
8810 0.557881
8820 0.557878
8830 0.557876
8840 0.557874
8850 0.557872
8860 0.557871
8870 0.55787
8880 0.557869
8890 0.557869
8900 0.55787
8910 0.557871
8920 0.557872
8930 0.557874
8940 0.557876
8950 0.557879
8960 0.557882
8970 0.557885
8980 0.557889
8990 0.557893
9000 0.557898
9010 0.557903
9020 0.557909
9030 0.557915
9040 0.557921
9050 0.557928
9060 0.557935
9070 0.557942
9080 0.55795
9090 0.557959
9100 0.557967
9110 0.557977
9120 0.557986
9130 0.557996
9140 0.558006
9150 0.558017
9160 0.558028
9170 0.55804
9180 0.558052
9190 0.558064
9200 0.558076
9210 0.558089
9220 0.558103
9230 0.558117
9240 0.558131
9250 0.558145
9260 0.55816
9270 0.558176
9280 0.558191
9290 0.558207
9300 0.558224
9310 0.558241
9320 0.558258
9330 0.558275
9340 0.558293
9350 0.558312
9360 0.55833
9370 0.558349
9380 0.558369
9390 0.558388
9400 0.558408
9410 0.558429
9420 0.55845
9430 0.558471
9440 0.558492
9450 0.558514
9460 0.558536
9470 0.558559
9480 0.558582
9490 0.558605
9500 0.558629
9510 0.558653
9520 0.558677
9530 0.558702
9540 0.558727
9550 0.558752
9560 0.558778
9570 0.558804
9580 0.55883
9590 0.558857
9600 0.558884
9610 0.558911
9620 0.558939
9630 0.558967
9640 0.558995
9650 0.559024
9660 0.559053
9670 0.559083
9680 0.559112
9690 0.559142
9700 0.559173
9710 0.559203
9720 0.559234
9730 0.559266
9740 0.559297
9750 0.559329
9760 0.559361
9770 0.559394
9780 0.559427
9790 0.55946
9800 0.559494
9810 0.559527
9820 0.559562
9830 0.559596
9840 0.559631
9850 0.559666
9860 0.559701
9870 0.559737
9880 0.559773
9890 0.559809
9900 0.559846
9910 0.559883
9920 0.55992
9930 0.559958
9940 0.559995
9950 0.560033
9960 0.560072
9970 0.560111
9980 0.56015
9990 0.560189
10000 0.560228
10010 0.560268
10020 0.560308
10030 0.560349
10040 0.56039
10050 0.560431
10060 0.560472
10070 0.560514
10080 0.560555
10090 0.560598
10100 0.56064
10110 0.560683
10120 0.560726
10130 0.560769
10140 0.560813
10150 0.560857
10160 0.560901
10170 0.560945
10180 0.56099
10190 0.561035
10200 0.56108
10210 0.561125
10220 0.561171
10230 0.561217
10240 0.561263
10250 0.56131
10260 0.561357
10270 0.561404
10280 0.561451
10290 0.561499
10300 0.561547
10310 0.561595
10320 0.561643
10330 0.561692
10340 0.56174
10350 0.56179
10360 0.561839
10370 0.561889
10380 0.561938
10390 0.561989
10400 0.562039
10410 0.56209
10420 0.56214
10430 0.562192
10440 0.562243
10450 0.562295
10460 0.562346
10470 0.562399
10480 0.562451
10490 0.562503
10500 0.562556
10510 0.562609
10520 0.562663
10530 0.562716
10540 0.56277
10550 0.562824
10560 0.562878
10570 0.562933
10580 0.562987
10590 0.563042
10600 0.563098
10610 0.563153
10620 0.563209
10630 0.563264
10640 0.563321
10650 0.563377
10660 0.563434
10670 0.56349
10680 0.563547
10690 0.563605
10700 0.563662
10710 0.56372
10720 0.563778
10730 0.563836
10740 0.563894
10750 0.563953
10760 0.564012
10770 0.564071
10780 0.56413
10790 0.564189
10800 0.564249
10810 0.564309
10820 0.564369
10830 0.564429
10840 0.564489
10850 0.56455
10860 0.564611
10870 0.564672
10880 0.564733
10890 0.564795
10900 0.564857
10910 0.564918
10920 0.564981
10930 0.565043
10940 0.565105
10950 0.565168
10960 0.565231
10970 0.565294
10980 0.565357
10990 0.565421
11000 0.565484
11010 0.565548
11020 0.565612
11030 0.565677
11040 0.565741
11050 0.565806
11060 0.565871
11070 0.565936
11080 0.566001
11090 0.566066
11100 0.566132
11110 0.566197
11120 0.566263
11130 0.566329
11140 0.566396
11150 0.566462
11160 0.566529
11170 0.566596
11180 0.566663
11190 0.56673
11200 0.566797
11210 0.566865
11220 0.566933
11230 0.567001
11240 0.567069
11250 0.567137
11260 0.567205
11270 0.567274
11280 0.567343
11290 0.567412
11300 0.567481
11310 0.56755
11320 0.567619
11330 0.567689
11340 0.567759
11350 0.567829
11360 0.567899
11370 0.567969
11380 0.56804
11390 0.56811
11400 0.568181
11410 0.568252
11420 0.568323
11430 0.568394
11440 0.568466
11450 0.568537
11460 0.568609
11470 0.568681
11480 0.568753
11490 0.568825
11500 0.568898
11510 0.56897
11520 0.569043
11530 0.569116
11540 0.569188
11550 0.569262
11560 0.569335
11570 0.569408
11580 0.569482
11590 0.569556
11600 0.569629
11610 0.569703
11620 0.569778
11630 0.569852
11640 0.569926
11650 0.570001
11660 0.570076
11670 0.57015
11680 0.570226
11690 0.570301
11700 0.570376
11710 0.570451
11720 0.570527
11730 0.570603
11740 0.570679
11750 0.570754
11760 0.570831
11770 0.570907
11780 0.570983
11790 0.57106
11800 0.571136
11810 0.571213
11820 0.57129
11830 0.571367
11840 0.571444
11850 0.571522
11860 0.571599
11870 0.571677
11880 0.571754
11890 0.571832
11900 0.57191
11910 0.571988
11920 0.572066
11930 0.572145
11940 0.572223
11950 0.572302
11960 0.572381
11970 0.572459
11980 0.572538
11990 0.572617
12000 0.572697
12010 0.572776
12020 0.572855
12030 0.572935
12040 0.573015
12050 0.573095
12060 0.573174
12070 0.573255
12080 0.573335
12090 0.573415
12100 0.573495
12110 0.573576
12120 0.573657
12130 0.573737
12140 0.573818
12150 0.573899
12160 0.57398
12170 0.574062
12180 0.574143
12190 0.574224
12200 0.574306
12210 0.574387
12220 0.574469
12230 0.574551
12240 0.574633
12250 0.574715
12260 0.574797
12270 0.57488
12280 0.574962
12290 0.575045
12300 0.575127
12310 0.57521
12320 0.575293
12330 0.575376
12340 0.575459
12350 0.575542
12360 0.575625
12370 0.575708
12380 0.575792
12390 0.575875
12400 0.575959
12410 0.576043
12420 0.576126
12430 0.57621
12440 0.576294
12450 0.576378
12460 0.576462
12470 0.576547
12480 0.576631
12490 0.576716
12500 0.5768
12510 0.576885
12520 0.576969
12530 0.577054
12540 0.577139
12550 0.577224
12560 0.577309
12570 0.577394
12580 0.577479
12590 0.577565
12600 0.57765
12610 0.577736
12620 0.577821
12630 0.577907
12640 0.577993
12650 0.578078
12660 0.578164
12670 0.57825
12680 0.578336
12690 0.578423
12700 0.578509
12710 0.578595
12720 0.578682
12730 0.578768
12740 0.578855
12750 0.578941
12760 0.579028
12770 0.579115
12780 0.579202
12790 0.579289
12800 0.579376
12810 0.579463
12820 0.57955
12830 0.579637
12840 0.579725
12850 0.579812
12860 0.5799
12870 0.579987
12880 0.580075
12890 0.580163
12900 0.58025
12910 0.580338
12920 0.580426
12930 0.580514
12940 0.580602
12950 0.58069
12960 0.580778
12970 0.580866
12980 0.580954
12990 0.581043
13000 0.581131
13010 0.58122
13020 0.581308
13030 0.581397
13040 0.581485
13050 0.581574
13060 0.581662
13070 0.581751
13080 0.58184
13090 0.581929
13100 0.582018
13110 0.582107
13120 0.582196
13130 0.582285
13140 0.582374
13150 0.582463
13160 0.582553
13170 0.582642
13180 0.582731
13190 0.582821
13200 0.58291
13210 0.583
13220 0.58309
13230 0.583179
13240 0.583269
13250 0.583359
13260 0.583449
13270 0.583538
13280 0.583628
13290 0.583718
13300 0.583808
13310 0.583898
13320 0.583989
13330 0.584079
13340 0.584169
13350 0.584259
13360 0.58435
13370 0.58444
13380 0.58453
13390 0.584621
13400 0.584711
13410 0.584802
13420 0.584893
13430 0.584983
13440 0.585074
13450 0.585165
13460 0.585256
13470 0.585346
13480 0.585437
13490 0.585528
13500 0.585619
13510 0.58571
13520 0.585801
13530 0.585892
13540 0.585984
13550 0.586075
13560 0.586166
13570 0.586257
13580 0.586349
13590 0.58644
13600 0.586531
13610 0.586623
13620 0.586714
13630 0.586806
13640 0.586897
13650 0.586989
13660 0.587081
13670 0.587172
13680 0.587264
13690 0.587356
13700 0.587448
13710 0.587539
13720 0.587631
13730 0.587723
13740 0.587815
13750 0.587907
13760 0.587999
13770 0.588091
13780 0.588183
13790 0.588275
13800 0.588368
13810 0.58846
13820 0.588552
13830 0.588644
13840 0.588737
13850 0.588829
13860 0.588921
13870 0.589014
13880 0.589106
13890 0.589199
13900 0.589291
13910 0.589384
13920 0.589476
13930 0.589569
13940 0.589661
13950 0.589754
13960 0.589846
13970 0.589939
13980 0.590032
13990 0.590124
14000 0.590217
14010 0.59031
14020 0.590403
14030 0.590496
14040 0.590588
14050 0.590681
14060 0.590774
14070 0.590867
14080 0.59096
14090 0.591053
14100 0.591146
14110 0.591239
14120 0.591332
14130 0.591425
14140 0.591518
14150 0.591611
14160 0.591704
14170 0.591797
14180 0.59189
14190 0.591983
14200 0.592076
14210 0.592169
14220 0.592263
14230 0.592356
14240 0.592449
14250 0.592542
14260 0.592635
14270 0.592729
14280 0.592822
14290 0.592915
14300 0.593008
14310 0.593102
14320 0.593195
14330 0.593288
14340 0.593382
14350 0.593475
14360 0.593568
14370 0.593662
14380 0.593755
14390 0.593849
14400 0.593942
14410 0.594035
14420 0.594129
14430 0.594222
14440 0.594316
14450 0.594409
14460 0.594503
14470 0.594596
14480 0.594689
14490 0.594783
14500 0.594876
14510 0.59497
14520 0.595063
14530 0.595157
14540 0.59525
14550 0.595344
14560 0.595438
14570 0.595531
14580 0.595625
14590 0.595718
14600 0.595812
14610 0.595905
14620 0.595999
14630 0.596092
14640 0.596186
14650 0.59628
14660 0.596373
14670 0.596467
14680 0.59656
14690 0.596654
14700 0.596747
14710 0.596841
14720 0.596935
14730 0.597028
14740 0.597122
14750 0.597215
14760 0.597309
14770 0.597403
14780 0.597496
14790 0.59759
14800 0.597683
14810 0.597777
14820 0.59787
14830 0.597964
14840 0.598058
14850 0.598151
14860 0.598245
14870 0.598338
14880 0.598432
14890 0.598526
14900 0.598619
14910 0.598713
14920 0.598806
14930 0.5989
14940 0.598993
14950 0.599087
14960 0.59918
14970 0.599274
14980 0.599368
14990 0.599461
15000 0.599555
15010 0.599648
15020 0.599742
15030 0.599835
15040 0.599929
15050 0.600022
15060 0.600116
15070 0.600209
15080 0.600303
15090 0.600396
15100 0.60049
15110 0.600583
15120 0.600677
15130 0.60077
15140 0.600864
15150 0.600957
15160 0.601051
15170 0.601144
15180 0.601237
15190 0.601331
15200 0.601424
15210 0.601518
15220 0.601611
15230 0.601705
15240 0.601798
15250 0.601891
15260 0.601985
15270 0.602078
15280 0.602172
15290 0.602265
15300 0.602358
15310 0.602452
15320 0.602545
15330 0.602638
15340 0.602732
15350 0.602825
15360 0.602918
15370 0.603012
15380 0.603105
15390 0.603198
15400 0.603291
15410 0.603385
15420 0.603478
15430 0.603571
15440 0.603664
15450 0.603757
15460 0.603851
15470 0.603944
15480 0.604037
15490 0.60413
15500 0.604223
15510 0.604316
15520 0.604409
15530 0.604502
15540 0.604595
15550 0.604688
15560 0.604781
15570 0.604874
15580 0.604967
15590 0.60506
15600 0.605153
15610 0.605246
15620 0.605339
15630 0.605432
15640 0.605525
15650 0.605618
15660 0.605711
15670 0.605803
15680 0.605896
15690 0.605989
15700 0.606082
15710 0.606174
15720 0.606267
15730 0.60636
15740 0.606452
15750 0.606545
15760 0.606638
15770 0.60673
15780 0.606823
15790 0.606916
15800 0.607008
15810 0.607101
15820 0.607193
15830 0.607286
15840 0.607378
15850 0.60747
15860 0.607563
15870 0.607655
15880 0.607748
15890 0.60784
15900 0.607932
15910 0.608025
15920 0.608117
15930 0.608209
15940 0.608301
15950 0.608393
15960 0.608486
15970 0.608578
15980 0.60867
15990 0.608762
16000 0.608854
16010 0.608946
16020 0.609038
16030 0.60913
16040 0.609222
16050 0.609314
16060 0.609406
16070 0.609498
16080 0.60959
16090 0.609682
16100 0.609773
16110 0.609865
16120 0.609957
16130 0.610049
16140 0.61014
16150 0.610232
16160 0.610324
16170 0.610415
16180 0.610507
16190 0.610598
16200 0.61069
16210 0.610782
16220 0.610873
16230 0.610964
16240 0.611056
16250 0.611147
16260 0.611239
16270 0.61133
16280 0.611421
16290 0.611513
16300 0.611604
16310 0.611695
16320 0.611787
16330 0.611878
16340 0.611969
16350 0.61206
16360 0.612151
16370 0.612242
16380 0.612333
16390 0.612424
16400 0.612516
16410 0.612606
16420 0.612697
16430 0.612788
16440 0.612879
16450 0.61297
16460 0.613061
16470 0.613152
16480 0.613242
16490 0.613333
16500 0.613424
16510 0.613514
16520 0.613605
16530 0.613696
16540 0.613786
16550 0.613877
16560 0.613967
16570 0.614058
16580 0.614148
16590 0.614238
16600 0.614329
16610 0.614419
16620 0.614509
16630 0.6146
16640 0.61469
16650 0.61478
16660 0.61487
16670 0.61496
16680 0.61505
16690 0.61514
16700 0.61523
16710 0.61532
16720 0.61541
16730 0.6155
16740 0.61559
16750 0.61568
16760 0.61577
16770 0.61586
16780 0.61595
16790 0.616039
16800 0.616129
16810 0.616219
16820 0.616308
16830 0.616398
16840 0.616487
16850 0.616577
16860 0.616666
16870 0.616756
16880 0.616845
16890 0.616935
16900 0.617024
16910 0.617113
16920 0.617203
16930 0.617292
16940 0.617381
16950 0.61747
16960 0.61756
16970 0.617649
16980 0.617738
16990 0.617827
17000 0.617916
17010 0.618005
17020 0.618094
17030 0.618182
17040 0.618271
17050 0.61836
17060 0.618449
17070 0.618538
17080 0.618626
17090 0.618715
17100 0.618804
17110 0.618892
17120 0.618981
17130 0.619069
17140 0.619158
17150 0.619246
17160 0.619334
17170 0.619423
17180 0.619511
17190 0.619599
17200 0.619688
17210 0.619776
17220 0.619864
17230 0.619952
17240 0.62004
17250 0.620128
17260 0.620216
17270 0.620304
17280 0.620392
17290 0.62048
17300 0.620568
17310 0.620655
17320 0.620743
17330 0.620831
17340 0.620919
17350 0.621006
17360 0.621094
17370 0.621181
17380 0.621269
17390 0.621356
17400 0.621444
17410 0.621531
17420 0.621618
17430 0.621706
17440 0.621793
17450 0.62188
17460 0.621967
17470 0.622054
17480 0.622141
17490 0.622228
17500 0.622315
17510 0.622402
17520 0.622489
17530 0.622576
17540 0.622663
17550 0.62275
17560 0.622836
17570 0.622923
17580 0.62301
17590 0.623096
17600 0.623183
17610 0.623269
17620 0.623356
17630 0.623442
17640 0.623529
17650 0.623615
17660 0.623701
17670 0.623787
17680 0.623874
17690 0.62396
17700 0.624046
17710 0.624132
17720 0.624218
17730 0.624304
17740 0.62439
17750 0.624476
17760 0.624562
17770 0.624648
17780 0.624733
17790 0.624819
17800 0.624905
17810 0.62499
17820 0.625076
17830 0.625161
17840 0.625247
17850 0.625332
17860 0.625418
17870 0.625503
17880 0.625588
17890 0.625674
17900 0.625759
17910 0.625844
17920 0.625929
17930 0.626014
17940 0.626099
17950 0.626184
17960 0.626269
17970 0.626354
17980 0.626439
17990 0.626524
18000 0.626609
18010 0.626693
18020 0.626778
18030 0.626863
18040 0.626947
18050 0.627032
18060 0.627116
18070 0.627201
18080 0.627285
18090 0.627369
18100 0.627454
18110 0.627538
18120 0.627622
18130 0.627706
18140 0.62779
18150 0.627874
18160 0.627958
18170 0.628042
18180 0.628126
18190 0.62821
18200 0.628294
18210 0.628377
18220 0.628461
18230 0.628545
18240 0.628628
18250 0.628712
18260 0.628795
18270 0.628879
18280 0.628962
18290 0.629046
18300 0.629129
18310 0.629212
18320 0.629296
18330 0.629379
18340 0.629462
18350 0.629545
18360 0.629628
18370 0.629711
18380 0.629794
18390 0.629877
18400 0.62996
18410 0.630043
18420 0.630126
18430 0.630208
18440 0.630291
18450 0.630374
18460 0.630456
18470 0.630539
18480 0.630621
18490 0.630704
18500 0.630786
18510 0.630869
18520 0.630951
18530 0.631033
18540 0.631116
18550 0.631198
18560 0.63128
18570 0.631362
18580 0.631444
18590 0.631526
18600 0.631608
18610 0.63169
18620 0.631772
18630 0.631854
18640 0.631936
18650 0.632017
18660 0.632099
18670 0.632181
18680 0.632262
18690 0.632344
18700 0.632425
18710 0.632507
18720 0.632588
18730 0.63267
18740 0.632751
18750 0.632832
18760 0.632913
18770 0.632995
18780 0.633076
18790 0.633157
18800 0.633238
18810 0.633319
18820 0.6334
18830 0.63348
18840 0.633561
18850 0.633642
18860 0.633723
18870 0.633803
18880 0.633884
18890 0.633965
18900 0.634045
18910 0.634126
18920 0.634206
18930 0.634286
18940 0.634367
18950 0.634447
18960 0.634527
18970 0.634607
18980 0.634687
18990 0.634767
19000 0.634847
19010 0.634927
19020 0.635007
19030 0.635087
19040 0.635167
19050 0.635247
19060 0.635326
19070 0.635406
19080 0.635485
19090 0.635565
19100 0.635645
19110 0.635724
19120 0.635803
19130 0.635883
19140 0.635962
19150 0.636041
19160 0.63612
19170 0.636199
19180 0.636279
19190 0.636358
19200 0.636437
19210 0.636515
19220 0.636594
19230 0.636673
19240 0.636752
19250 0.636831
19260 0.636909
19270 0.636988
19280 0.637066
19290 0.637145
19300 0.637223
19310 0.637302
19320 0.63738
19330 0.637459
19340 0.637537
19350 0.637615
19360 0.637693
19370 0.637771
19380 0.637849
19390 0.637927
19400 0.638005
19410 0.638083
19420 0.638161
19430 0.638239
19440 0.638316
19450 0.638394
19460 0.638472
19470 0.638549
19480 0.638627
19490 0.638704
19500 0.638782
19510 0.638859
19520 0.638936
19530 0.639014
19540 0.639091
19550 0.639168
19560 0.639245
19570 0.639322
19580 0.639399
19590 0.639476
19600 0.639553
19610 0.63963
19620 0.639706
19630 0.639783
19640 0.63986
19650 0.639936
19660 0.640013
19670 0.640089
19680 0.640166
19690 0.640242
19700 0.640319
19710 0.640395
19720 0.640471
19730 0.640547
19740 0.640624
19750 0.6407
19760 0.640776
19770 0.640852
19780 0.640928
19790 0.641003
19800 0.641079
19810 0.641155
19820 0.641231
19830 0.641306
19840 0.641382
19850 0.641458
19860 0.641533
19870 0.641609
19880 0.641684
19890 0.641759
19900 0.641835
19910 0.64191
19920 0.641985
19930 0.64206
19940 0.642135
19950 0.64221
19960 0.642285
19970 0.64236
19980 0.642435
19990 0.64251
20000 0.642584
20010 0.642659
20020 0.642734
20030 0.642808
20040 0.642883
20050 0.642957
20060 0.643032
20070 0.643106
20080 0.643181
20090 0.643255
20100 0.643329
20110 0.643403
20120 0.643477
20130 0.643552
20140 0.643626
20150 0.6437
20160 0.643773
20170 0.643847
20180 0.643921
20190 0.643995
20200 0.644069
20210 0.644142
20220 0.644216
20230 0.644289
20240 0.644363
20250 0.644436
20260 0.64451
20270 0.644583
20280 0.644656
20290 0.64473
20300 0.644803
20310 0.644876
20320 0.644949
20330 0.645022
20340 0.645095
20350 0.645168
20360 0.645241
20370 0.645314
20380 0.645387
20390 0.645459
20400 0.645532
20410 0.645605
20420 0.645677
20430 0.64575
20440 0.645822
20450 0.645895
20460 0.645967
20470 0.646039
20480 0.646112
20490 0.646184
20500 0.646256
20510 0.646328
20520 0.6464
20530 0.646472
20540 0.646544
20550 0.646616
20560 0.646688
20570 0.64676
20580 0.646831
20590 0.646903
20600 0.646975
20610 0.647046
20620 0.647118
20630 0.647189
20640 0.647261
20650 0.647332
20660 0.647404
20670 0.647475
20680 0.647546
20690 0.647617
20700 0.647688
20710 0.647759
20720 0.64783
20730 0.647901
20740 0.647972
20750 0.648043
20760 0.648114
20770 0.648184
20780 0.648255
20790 0.648326
20800 0.648396
20810 0.648467
20820 0.648537
20830 0.648607
20840 0.648678
20850 0.648748
20860 0.648818
20870 0.648888
20880 0.648958
20890 0.649028
20900 0.649098
20910 0.649168
20920 0.649238