5 0.292065
10 0.268027
15 0.252147
20 0.241422
25 0.234093
30 0.229073
35 0.22566
40 0.223388
45 0.221936
50 0.221082
55 0.220669
60 0.220584
65 0.220747
70 0.221097
75 0.221592
80 0.222199
85 0.222896
90 0.223665
95 0.224494
100 0.225374
105 0.226298
110 0.227262
115 0.228261
120 0.229294
125 0.23036
130 0.231458
135 0.232587
140 0.233748
145 0.234941
150 0.236168
155 0.23743
160 0.238729
165 0.240065
170 0.241438
175 0.24285
180 0.244303
185 0.245796
190 0.247332
195 0.248911
200 0.250535
205 0.252206
210 0.253926
215 0.255695
220 0.257516
225 0.259392
230 0.261323
235 0.263312
240 0.265362
245 0.267475
250 0.269656
255 0.271907
260 0.274232
265 0.276632
270 0.279112
275 0.281675
280 0.284322
285 0.287059
290 0.289888
295 0.292814
300 0.295842
305 0.298976
310 0.302223
315 0.305588
320 0.309075
325 0.312691
330 0.316441
335 0.320332
340 0.324371
345 0.328566
350 0.332926
355 0.337461
360 0.342179
365 0.34709
370 0.352205
375 0.357535
380 0.363093
385 0.368892
390 0.374949
395 0.381279
400 0.387899
405 0.394827
410 0.402083
415 0.409688
420 0.417665
425 0.426043
430 0.434849
435 0.444114
440 0.453872
445 0.464159
450 0.475014
455 0.486482
460 0.498613
465 0.511462
470 0.525088
475 0.539556
480 0.554938
485 0.571316
490 0.58878
495 0.607433
500 0.627394
505 0.648793
510 0.671774
515 0.696498
520 0.723149
525 0.751934
530 0.78309
535 0.816883
540 0.853619
545 0.893644
550 0.937353
555 0.98519
560 1.03766
565 1.09531
570 1.15868
575 1.22835
580 1.30477
585 1.38798
590 1.47723
595 1.5703
600 1.66192
605 1.74108
610 1.78896
615 1.77816
620 1.68275
625 1.51497
630 1.35122
635 1.25068
640 1.2049
645 1.1905
650 1.18252
655 1.1739
660 1.15573
665 1.13747
670 1.11771
675 1.1048
680 1.09416
685 1.08799
690 1.08152
695 1.07574
700 1.06873
705 1.06207
710 1.0554
715 1.04972
720 1.04461
725 1.04022
730 1.03607
735 1.03212
740 1.02819
745 1.02436
750 1.02064
755 1.01711
760 1.01377
765 1.0106
770 1.00756
775 1.00463
780 1.00178
785 0.999005
790 0.996313
795 0.993705
800 0.991181
805 0.988738
810 0.98637
815 0.98407
820 0.98183
825 0.979648
830 0.97752
835 0.975444
840 0.97342
845 0.971445
850 0.969517
855 0.967634
860 0.965793
865 0.963992
870 0.96223
875 0.960505
880 0.958815
885 0.957159
890 0.955537
895 0.953946
900 0.952386
905 0.950855
910 0.949353
915 0.947878
920 0.946429
925 0.945006
930 0.943608
935 0.942233
940 0.940882
945 0.939552
950 0.938245
955 0.936958
960 0.935692
965 0.934446
970 0.933219
975 0.93201
980 0.930819
985 0.929646
990 0.928491
995 0.927351
1000 0.926228
1005 0.925121
1010 0.924028
1015 0.922951
1020 0.921888
1025 0.92084
1030 0.919805
1035 0.918783
1040 0.917775
1045 0.91678
1050 0.915797
1055 0.914826
1060 0.913867
1065 0.91292
1070 0.911984
1075 0.911059
1080 0.910145
1085 0.909241
1090 0.908348
1095 0.907466
1100 0.906593
1105 0.90573
1110 0.904876
1115 0.904031
1120 0.903196
1125 0.90237
1130 0.901552
1135 0.900743
1140 0.899943
1145 0.899151
1150 0.898366
1155 0.89759
1160 0.896822
1165 0.896061
1170 0.895307
1175 0.894561
1180 0.893823
1185 0.893091
1190 0.892366
1195 0.891648
1200 0.890937
1205 0.890232
1210 0.889534
1215 0.888842
1220 0.888157
1225 0.887477
1230 0.886804
1235 0.886136
1240 0.885475
1245 0.884819
1250 0.884169
1255 0.883524
1260 0.882885
1265 0.882251
1270 0.881623
1275 0.881
1280 0.880382
1285 0.879769
1290 0.87916
1295 0.878557
1300 0.877959
1305 0.877365
1310 0.876777
1315 0.876192
1320 0.875613
1325 0.875037
1330 0.874467
1335 0.8739
1340 0.873338
1345 0.87278
1350 0.872226
1355 0.871677
1360 0.871131
1365 0.87059
1370 0.870052
1375 0.869518
1380 0.868988
1385 0.868462
1390 0.86794
1395 0.867421
1400 0.866906
1405 0.866395
1410 0.865887
1415 0.865383
1420 0.864882
1425 0.864384
1430 0.86389
1435 0.863399
1440 0.862912
1445 0.862428
1450 0.861947
1455 0.861469
1460 0.860994
1465 0.860523
1470 0.860054
1475 0.859588
1480 0.859126
1485 0.858666
1490 0.85821
1495 0.857756
1500 0.857305
1505 0.856857
1510 0.856411
1515 0.855969
1520 0.855529
1525 0.855092
1530 0.854657
1535 0.854225
1540 0.853796
1545 0.853369
1550 0.852945
1555 0.852523
1560 0.852104
1565 0.851687
1570 0.851273
1575 0.850861
1580 0.850452
1585 0.850045
1590 0.84964
1595 0.849237
1600 0.848837
1605 0.848439
1610 0.848044
1615 0.84765
1620 0.847259
1625 0.84687
1630 0.846483
1635 0.846098
1640 0.845716
1645 0.845335
1650 0.844956
1655 0.84458
1660 0.844206
1665 0.843833
1670 0.843463
1675 0.843094
1680 0.842728
1685 0.842363
1690 0.842001
1695 0.84164
1700 0.841281
1705 0.840924
1710 0.840569
1715 0.840215
1720 0.839864
1725 0.839514
1730 0.839166
1735 0.83882
1740 0.838475
1745 0.838133
1750 0.837792
1755 0.837453
1760 0.837115
1765 0.836779
1770 0.836445
1775 0.836112
1780 0.835781
1785 0.835452
1790 0.835124
1795 0.834798
1800 0.834473
1805 0.83415
1810 0.833828
1815 0.833508
1820 0.83319
1825 0.832873
1830 0.832558
1835 0.832244
1840 0.831931
1845 0.83162
1850 0.83131
1855 0.831002
1860 0.830696
1865 0.83039
1870 0.830086
1875 0.829784
1880 0.829483
1885 0.829183
1890 0.828884
1895 0.828587
1900 0.828291
1905 0.827997
1910 0.827704
1915 0.827412
1920 0.827122
1925 0.826832
1930 0.826544
1935 0.826258
1940 0.825972
1945 0.825688
1950 0.825405
1955 0.825123
1960 0.824843
1965 0.824564
1970 0.824286
1975 0.824009
1980 0.823733
1985 0.823458
1990 0.823185
1995 0.822913
2000 0.822642
2005 0.822372
2010 0.822103
2015 0.821835
2020 0.821569
2025 0.821303
2030 0.821039
2035 0.820776
2040 0.820514
2045 0.820252
2050 0.819992
2055 0.819733
2060 0.819475
2065 0.819219
2070 0.818963
2075 0.818708
2080 0.818454
2085 0.818201
2090 0.81795
2095 0.817699
2100 0.817449
2105 0.817201
2110 0.816953
2115 0.816706
2120 0.81646
2125 0.816215
2130 0.815971
2135 0.815728
2140 0.815487
2145 0.815245
2150 0.815005
2155 0.814766
2160 0.814528
2165 0.814291
2170 0.814054
2175 0.813819
2180 0.813584
2185 0.81335
2190 0.813117
2195 0.812885
2200 0.812654
2205 0.812424
2210 0.812195
2215 0.811966
2220 0.811738
2225 0.811512
2230 0.811286
2235 0.811061
2240 0.810836
2245 0.810613
2250 0.81039
2255 0.810168
2260 0.809947
2265 0.809727
2270 0.809508
2275 0.809289
2280 0.809071
2285 0.808854
2290 0.808638
2295 0.808422
2300 0.808208
2305 0.807994
2310 0.807781
2315 0.807568
2320 0.807357
2325 0.807146
2330 0.806936
2335 0.806726
2340 0.806518
2345 0.80631
2350 0.806102
2355 0.805896
2360 0.80569
2365 0.805485
2370 0.805281
2375 0.805077
2380 0.804874
2385 0.804672
2390 0.80447
2395 0.80427
2400 0.80407
2405 0.80387
2410 0.803671
2415 0.803473
2420 0.803276
2425 0.803079
2430 0.802883
2435 0.802688
2440 0.802493
2445 0.802299
2450 0.802105
2455 0.801912
2460 0.80172
2465 0.801529
2470 0.801338
2475 0.801148
2480 0.800958
2485 0.800769
2490 0.800581
2495 0.800393
2500 0.800206
2505 0.800019
2510 0.799833
2515 0.799648
2520 0.799463
2525 0.799279
2530 0.799096
2535 0.798913
2540 0.798731
2545 0.798549
2550 0.798368
2555 0.798187
2560 0.798007
2565 0.797828
2570 0.797649
2575 0.797471
2580 0.797293
2585 0.797116
2590 0.796939
2595 0.796763
2600 0.796588
2605 0.796413
2610 0.796239
2615 0.796065
2620 0.795892
2625 0.795719
2630 0.795547
2635 0.795375
2640 0.795204
2645 0.795034
2650 0.794863
2655 0.794694
2660 0.794525
2665 0.794357
2670 0.794189
2675 0.794021
2680 0.793854
2685 0.793688
2690 0.793522
2695 0.793357
2700 0.793192
2705 0.793027
2710 0.792863
2715 0.7927
2720 0.792537
2725 0.792375
2730 0.792213
2735 0.792051
2740 0.791891
2745 0.79173
2750 0.79157
2755 0.791411
2760 0.791252
2765 0.791093
2770 0.790935
2775 0.790777
2780 0.79062
2785 0.790464
2790 0.790307
2795 0.790152
2800 0.789996
2805 0.789841
2810 0.789687
2815 0.789533
2820 0.78938
2825 0.789227
2830 0.789074
2835 0.788922
2840 0.78877
2845 0.788619
2850 0.788468
2855 0.788318
2860 0.788168
2865 0.788018
2870 0.787869
2875 0.787721
2880 0.787572
2885 0.787424
2890 0.787277
2895 0.78713
2900 0.786984
2905 0.786837
2910 0.786692
2915 0.786546
2920 0.786402
2925 0.786257
2930 0.786113
2935 0.785969
2940 0.785826
2945 0.785683
2950 0.785541
2955 0.785399
2960 0.785257
2965 0.785116
2970 0.784975
2975 0.784834
2980 0.784694
2985 0.784555
2990 0.784415
2995 0.784276
3000 0.784138
3005 0.784
3010 0.783862
3015 0.783724
3020 0.783587
3025 0.783451
3030 0.783315
3035 0.783179
3040 0.783043
3045 0.782908
3050 0.782773
3055 0.782639
3060 0.782505
3065 0.782371
3070 0.782238
3075 0.782105
3080 0.781972
3085 0.78184
3090 0.781708
3095 0.781576
3100 0.781445
3105 0.781314
3110 0.781184
3115 0.781054
3120 0.780924
3125 0.780795
3130 0.780666
3135 0.780537
3140 0.780408
3145 0.78028
3150 0.780153
3155 0.780025
3160 0.779898
3165 0.779772
3170 0.779645
3175 0.779519
3180 0.779393
3185 0.779268
3190 0.779143
3195 0.779018
3200 0.778894
3205 0.77877
3210 0.778646
3215 0.778523
3220 0.7784
3225 0.778277
3230 0.778154
3235 0.778032
3240 0.77791
3245 0.777789
3250 0.777668
3255 0.777547
3260 0.777426
3265 0.777306
3270 0.777186
3275 0.777066
3280 0.776947
3285 0.776828
3290 0.776709
3295 0.776591
3300 0.776473
3305 0.776355
3310 0.776237
3315 0.77612
3320 0.776003
3325 0.775887
3330 0.77577
3335 0.775654
3340 0.775539
3345 0.775423
3350 0.775308
3355 0.775193
3360 0.775079
3365 0.774964
3370 0.77485
3375 0.774737
3380 0.774623
3385 0.77451
3390 0.774397
3395 0.774285
3400 0.774172
3405 0.77406
3410 0.773949
3415 0.773837
3420 0.773726
3425 0.773615
3430 0.773505
3435 0.773394
3440 0.773284
3445 0.773174
3450 0.773065
3455 0.772956
3460 0.772847
3465 0.772738
3470 0.77263
3475 0.772521
3480 0.772413
3485 0.772306
3490 0.772198
3495 0.772091
3500 0.771984
3505 0.771878
3510 0.771772
3515 0.771665
3520 0.77156
3525 0.771454
3530 0.771349
3535 0.771244
3540 0.771139
3545 0.771034
3550 0.77093
3555 0.770826
3560 0.770722
3565 0.770619
3570 0.770516
3575 0.770413
3580 0.77031
3585 0.770207
3590 0.770105
3595 0.770003
3600 0.769901
3605 0.7698
3610 0.769698
3615 0.769597
3620 0.769496
3625 0.769396
3630 0.769295
3635 0.769195
3640 0.769095
3645 0.768996
3650 0.768896
3655 0.768797
3660 0.768698
3665 0.7686
3670 0.768501
3675 0.768403
3680 0.768305
3685 0.768207
3690 0.76811
3695 0.768013
3700 0.767915
3705 0.767819
3710 0.767722
3715 0.767626
3720 0.76753
3725 0.767434
3730 0.767338
3735 0.767242
3740 0.767147
3745 0.767052
3750 0.766957
3755 0.766863
3760 0.766768
3765 0.766674
3770 0.76658
3775 0.766487
3780 0.766393
3785 0.7663
3790 0.766207
3795 0.766114
3800 0.766021
3805 0.765929
3810 0.765837
3815 0.765745
3820 0.765653
3825 0.765562
3830 0.76547
3835 0.765379
3840 0.765288
3845 0.765197
3850 0.765107
3855 0.765017
3860 0.764927
3865 0.764837
3870 0.764747
3875 0.764658
3880 0.764568
3885 0.764479
3890 0.76439
3895 0.764302
3900 0.764213
3905 0.764125
3910 0.764037
3915 0.763949
3920 0.763862
3925 0.763774
3930 0.763687
3935 0.7636
3940 0.763513
3945 0.763426
3950 0.76334
3955 0.763254
3960 0.763168
3965 0.763082
3970 0.762996
3975 0.762911
3980 0.762825
3985 0.76274
3990 0.762655
3995 0.762571
4000 0.762486
4005 0.762402
4010 0.762318
4015 0.762234
4020 0.76215
4025 0.762066
4030 0.761983
4035 0.7619
4040 0.761817
4045 0.761734
4050 0.761651
4055 0.761569
4060 0.761487
4065 0.761405
4070 0.761323
4075 0.761241
4080 0.761159
4085 0.761078
4090 0.760997
4095 0.760916
4100 0.760835
4105 0.760754
4110 0.760674
4115 0.760594
4120 0.760514
4125 0.760434
4130 0.760354
4135 0.760274
4140 0.760195
4145 0.760116
4150 0.760037
4155 0.759958
4160 0.759879
4165 0.759801
4170 0.759722
4175 0.759644
4180 0.759566
4185 0.759488
4190 0.759411
4195 0.759333
4200 0.759256
4205 0.759179
4210 0.759102
4215 0.759025
4220 0.758948
4225 0.758872
4230 0.758796
4235 0.758719
4240 0.758644
4245 0.758568
4250 0.758492
4255 0.758417
4260 0.758341
4265 0.758266
4270 0.758191
4275 0.758116
4280 0.758042
4285 0.757967
4290 0.757893
4295 0.757819
4300 0.757745
4305 0.757671
4310 0.757597
4315 0.757524
4320 0.75745
4325 0.757377
4330 0.757304
4335 0.757231
4340 0.757159
4345 0.757086
4350 0.757014
4355 0.756941
4360 0.756869
4365 0.756797
4370 0.756726
4375 0.756654
4380 0.756583
4385 0.756511
4390 0.75644
4395 0.756369
4400 0.756298
4405 0.756228
4410 0.756157
4415 0.756087
4420 0.756016
4425 0.755946
4430 0.755876
4435 0.755807
4440 0.755737
4445 0.755667
4450 0.755598
4455 0.755529
4460 0.75546
4465 0.755391
4470 0.755322
4475 0.755254
4480 0.755185
4485 0.755117
4490 0.755049
4495 0.754981
4500 0.754913
4505 0.754845
4510 0.754777
4515 0.75471
4520 0.754643
4525 0.754576
4530 0.754509
4535 0.754442
4540 0.754375
4545 0.754308
4550 0.754242
4555 0.754176
4560 0.75411
4565 0.754044
4570 0.753978
4575 0.753912
4580 0.753846
4585 0.753781
4590 0.753716
4595 0.753651
4600 0.753585
4605 0.753521
4610 0.753456
4615 0.753391
4620 0.753327
4625 0.753262
4630 0.753198
4635 0.753134
4640 0.75307
4645 0.753006
4650 0.752943
4655 0.752879
4660 0.752816
4665 0.752753
4670 0.752689
4675 0.752626
4680 0.752564
4685 0.752501
4690 0.752438
4695 0.752376
4700 0.752314
4705 0.752251
4710 0.752189
4715 0.752127
4720 0.752066
4725 0.752004
4730 0.751942
4735 0.751881
4740 0.75182
4745 0.751758
4750 0.751697
4755 0.751637
4760 0.751576
4765 0.751515
4770 0.751455
4775 0.751394
4780 0.751334
4785 0.751274
4790 0.751214
4795 0.751154
4800 0.751094
4805 0.751035
4810 0.750975
4815 0.750916
4820 0.750857
4825 0.750797
4830 0.750738
4835 0.75068
4840 0.750621
4845 0.750562
4850 0.750504
4855 0.750445
4860 0.750387
4865 0.750329
4870 0.750271
4875 0.750213
4880 0.750155
4885 0.750098
4890 0.75004
4895 0.749983
4900 0.749925
4905 0.749868
4910 0.749811
4915 0.749754
4920 0.749697
4925 0.749641
4930 0.749584
4935 0.749528
4940 0.749471
4945 0.749415
4950 0.749359
4955 0.749303
4960 0.749247
4965 0.749191
4970 0.749136
4975 0.74908
4980 0.749025
4985 0.74897
4990 0.748914
4995 0.748859
5000 0.748805
5005 0.74875
5010 0.748695
5015 0.74864
5020 0.748586
5025 0.748532
5030 0.748477
5035 0.748423
5040 0.748369
5045 0.748315
5050 0.748261
5055 0.748208
5060 0.748154
5065 0.748101
5070 0.748047
5075 0.747994
5080 0.747941
5085 0.747888
5090 0.747835
5095 0.747782
5100 0.74773
5105 0.747677
5110 0.747625
5115 0.747572
5120 0.74752
5125 0.747468
5130 0.747416
5135 0.747364
5140 0.747312
5145 0.74726
5150 0.747209
5155 0.747157
5160 0.747106
5165 0.747055
5170 0.747004
5175 0.746952
5180 0.746902
5185 0.746851
5190 0.7468
5195 0.746749
5200 0.746699
5205 0.746648
5210 0.746598
5215 0.746548
5220 0.746498
5225 0.746448
5230 0.746398
5235 0.746348
5240 0.746298
5245 0.746249
5250 0.746199
5255 0.74615
5260 0.746101
5265 0.746052
5270 0.746002
5275 0.745953
5280 0.745905
5285 0.745856
5290 0.745807
5295 0.745759
5300 0.74571
5305 0.745662
5310 0.745614
5315 0.745565
5320 0.745517
5325 0.745469
5330 0.745422
5335 0.745374
5340 0.745326
5345 0.745279
5350 0.745231
5355 0.745184
5360 0.745137
5365 0.745089
5370 0.745042
5375 0.744995
5380 0.744949
5385 0.744902
5390 0.744855
5395 0.744809
5400 0.744762
5405 0.744716
5410 0.744669
5415 0.744623
5420 0.744577
5425 0.744531
5430 0.744485
5435 0.744439
5440 0.744394
5445 0.744348
5450 0.744303
5455 0.744257
5460 0.744212
5465 0.744167
5470 0.744122
5475 0.744077
5480 0.744032
5485 0.743987
5490 0.743942
5495 0.743897
5500 0.743853
5505 0.743808
5510 0.743764
5515 0.74372
5520 0.743676
5525 0.743631
5530 0.743587
5535 0.743544
5540 0.7435
5545 0.743456
5550 0.743412
5555 0.743369
5560 0.743325
5565 0.743282
5570 0.743239
5575 0.743196
5580 0.743152
5585 0.743109
5590 0.743067
5595 0.743024
5600 0.742981
5605 0.742938
5610 0.742896
5615 0.742853
5620 0.742811
5625 0.742769
5630 0.742727
5635 0.742684
5640 0.742642
5645 0.7426
5650 0.742559
5655 0.742517
5660 0.742475
5665 0.742434
5670 0.742392
5675 0.742351
5680 0.742309
5685 0.742268
5690 0.742227
5695 0.742186
5700 0.742145
5705 0.742104
5710 0.742063
5715 0.742023
5720 0.741982
5725 0.741942
5730 0.741901
5735 0.741861
5740 0.741821
5745 0.74178
5750 0.74174
5755 0.7417
5760 0.74166
5765 0.74162
5770 0.741581
5775 0.741541
5780 0.741501
5785 0.741462
5790 0.741423
5795 0.741383
5800 0.741344
5805 0.741305
5810 0.741266
5815 0.741227
5820 0.741188
5825 0.741149
5830 0.74111
5835 0.741071
5840 0.741033
5845 0.740994
5850 0.740956
5855 0.740918
5860 0.740879
5865 0.740841
5870 0.740803
5875 0.740765
5880 0.740727
5885 0.740689
5890 0.740651
5895 0.740614
5900 0.740576
5905 0.740539
5910 0.740501
5915 0.740464
5920 0.740426
5925 0.740389
5930 0.740352
5935 0.740315
5940 0.740278
5945 0.740241
5950 0.740204
5955 0.740168
5960 0.740131
5965 0.740094
5970 0.740058
5975 0.740021
5980 0.739985
5985 0.739949
5990 0.739913
5995 0.739877
6000 0.73984
6005 0.739805
6010 0.739769
6015 0.739733
6020 0.739697
6025 0.739661
6030 0.739626
6035 0.73959
6040 0.739555
6045 0.73952
6050 0.739484
6055 0.739449
6060 0.739414
6065 0.739379
6070 0.739344
6075 0.739309
6080 0.739274
6085 0.73924
6090 0.739205
6095 0.73917
6100 0.739136
6105 0.739102
6110 0.739067
6115 0.739033
6120 0.738999
6125 0.738965
6130 0.738931
6135 0.738897
6140 0.738863
6145 0.738829
6150 0.738795
6155 0.738761
6160 0.738728
6165 0.738694
6170 0.738661
6175 0.738627
6180 0.738594
6185 0.738561
6190 0.738528
6195 0.738495
6200 0.738461
6205 0.738429
6210 0.738396
6215 0.738363
6220 0.73833
6225 0.738297
6230 0.738265
6235 0.738232
6240 0.7382
6245 0.738167
6250 0.738135
6255 0.738103
6260 0.738071
6265 0.738039
6270 0.738007
6275 0.737975
6280 0.737943
6285 0.737911
6290 0.737879
6295 0.737848
6300 0.737816
6305 0.737784
6310 0.737753
6315 0.737722
6320 0.73769
6325 0.737659
6330 0.737628
6335 0.737597
6340 0.737566
6345 0.737535
6350 0.737504
6355 0.737473
6360 0.737442
6365 0.737412
6370 0.737381
6375 0.73735
6380 0.73732
6385 0.737289
6390 0.737259
6395 0.737229
6400 0.737199
6405 0.737168
6410 0.737138
6415 0.737108
6420 0.737078
6425 0.737049
6430 0.737019
6435 0.736989
6440 0.736959
6445 0.73693
6450 0.7369
6455 0.736871
6460 0.736841
6465 0.736812
6470 0.736783
6475 0.736753
6480 0.736724
6485 0.736695
6490 0.736666
6495 0.736637
6500 0.736608
6505 0.73658
6510 0.736551
6515 0.736522
6520 0.736494
6525 0.736465
6530 0.736436
6535 0.736408
6540 0.73638
6545 0.736351
6550 0.736323
6555 0.736295
6560 0.736267
6565 0.736239
6570 0.736211
6575 0.736183
6580 0.736155
6585 0.736127
6590 0.7361
6595 0.736072
6600 0.736044
6605 0.736017
6610 0.735989
6615 0.735962
6620 0.735935
6625 0.735907
6630 0.73588
6635 0.735853
6640 0.735826
6645 0.735799
6650 0.735772
6655 0.735745
6660 0.735718
6665 0.735692
6670 0.735665
6675 0.735638
6680 0.735612
6685 0.735585
6690 0.735559
6695 0.735532
6700 0.735506
6705 0.73548
6710 0.735454
6715 0.735427
6720 0.735401
6725 0.735375
6730 0.735349
6735 0.735323
6740 0.735298
6745 0.735272
6750 0.735246
6755 0.73522
6760 0.735195
6765 0.735169
6770 0.735144
6775 0.735118
6780 0.735093
6785 0.735068
6790 0.735043
6795 0.735017
6800 0.734992
6805 0.734967
6810 0.734942
6815 0.734917
6820 0.734892
6825 0.734868
6830 0.734843
6835 0.734818
6840 0.734794
6845 0.734769
6850 0.734744
6855 0.73472
6860 0.734696
6865 0.734671
6870 0.734647
6875 0.734623
6880 0.734599
6885 0.734574
6890 0.73455
6895 0.734526
6900 0.734503
6905 0.734479
6910 0.734455
6915 0.734431
6920 0.734407
6925 0.734384
6930 0.73436
6935 0.734337
6940 0.734313
6945 0.73429
6950 0.734266
6955 0.734243
6960 0.73422
6965 0.734197
6970 0.734174
6975 0.734151
6980 0.734127
6985 0.734105
6990 0.734082
6995 0.734059
7000 0.734036
7005 0.734013
7010 0.733991
7015 0.733968
7020 0.733945
7025 0.733923
7030 0.7339
7035 0.733878
7040 0.733856
7045 0.733833
7050 0.733811
7055 0.733789
7060 0.733767
7065 0.733745
7070 0.733723
7075 0.733701
7080 0.733679
7085 0.733657
7090 0.733635
7095 0.733614
7100 0.733592
7105 0.73357
7110 0.733549
7115 0.733527
7120 0.733506
7125 0.733485
7130 0.733463
7135 0.733442
7140 0.733421
7145 0.7334
7150 0.733378
7155 0.733357
7160 0.733336
7165 0.733315
7170 0.733294
7175 0.733274
7180 0.733253
7185 0.733232
7190 0.733211
7195 0.733191
7200 0.73317
7205 0.73315
7210 0.733129
7215 0.733109
7220 0.733088
7225 0.733068
7230 0.733048
7235 0.733027
7240 0.733007
7245 0.732987
7250 0.732967
7255 0.732947
7260 0.732927
7265 0.732907
7270 0.732887
7275 0.732868
7280 0.732848
7285 0.732828
7290 0.732809
7295 0.732789
7300 0.732769
7305 0.73275
7310 0.73273
7315 0.732711
7320 0.732692
7325 0.732672
7330 0.732653
7335 0.732634
7340 0.732615
7345 0.732596
7350 0.732577
7355 0.732558
7360 0.732539
7365 0.73252
7370 0.732501
7375 0.732483
7380 0.732464
7385 0.732445
7390 0.732427
7395 0.732408
7400 0.732389
7405 0.732371
7410 0.732353
7415 0.732334
7420 0.732316
7425 0.732298
7430 0.732279
7435 0.732261
7440 0.732243
7445 0.732225
7450 0.732207
7455 0.732189
7460 0.732171
7465 0.732153
7470 0.732135
7475 0.732118
7480 0.7321
7485 0.732082
7490 0.732065
7495 0.732047
7500 0.73203
7505 0.732012
7510 0.731995
7515 0.731977
7520 0.73196
7525 0.731943
7530 0.731926
7535 0.731908
7540 0.731891
7545 0.731874
7550 0.731857
7555 0.73184
7560 0.731823
7565 0.731806
7570 0.731789
7575 0.731773
7580 0.731756
7585 0.731739
7590 0.731723
7595 0.731706
7600 0.731689
7605 0.731673
7610 0.731656
7615 0.73164
7620 0.731624
7625 0.731607
7630 0.731591
7635 0.731575
7640 0.731559
7645 0.731543
7650 0.731526
7655 0.73151
7660 0.731494
7665 0.731478
7670 0.731463
7675 0.731447
7680 0.731431
7685 0.731415
7690 0.7314
7695 0.731384
7700 0.731368
7705 0.731353
7710 0.731337
7715 0.731322
7720 0.731306
7725 0.731291
7730 0.731276
7735 0.73126
7740 0.731245
7745 0.73123
7750 0.731215
7755 0.7312
7760 0.731184
7765 0.731169
7770 0.731155
7775 0.73114
7780 0.731125
7785 0.73111
7790 0.731095
7795 0.73108
7800 0.731066
7805 0.731051
7810 0.731036
7815 0.731022
7820 0.731007
7825 0.730993
7830 0.730978
7835 0.730964
7840 0.73095
7845 0.730935
7850 0.730921
7855 0.730907
7860 0.730893
7865 0.730879
7870 0.730865
7875 0.730851
7880 0.730837
7885 0.730823
7890 0.730809
7895 0.730795
7900 0.730781
7905 0.730767
7910 0.730754
7915 0.73074
7920 0.730726
7925 0.730713
7930 0.730699
7935 0.730686
7940 0.730672
7945 0.730659
7950 0.730646
7955 0.730632
7960 0.730619
7965 0.730606
7970 0.730593
7975 0.730579
7980 0.730566
7985 0.730553
7990 0.73054
7995 0.730527
8000 0.730514
8005 0.730501
8010 0.730489
8015 0.730476
8020 0.730463
8025 0.73045
8030 0.730438
8035 0.730425
8040 0.730412
8045 0.7304
8050 0.730387
8055 0.730375
8060 0.730362
8065 0.73035
8070 0.730338
8075 0.730325
8080 0.730313
8085 0.730301
8090 0.730289
8095 0.730277
8100 0.730265
8105 0.730253
8110 0.730241
8115 0.730229
8120 0.730217
8125 0.730205
8130 0.730193
8135 0.730181
8140 0.730169
8145 0.730158
8150 0.730146
8155 0.730135
8160 0.730123
8165 0.730112
8170 0.7301
8175 0.730089
8180 0.730078
8185 0.730067
8190 0.730056
8195 0.730045
8200 0.730035
8205 0.730024
8210 0.730013
8215 0.730003
8220 0.729992
8225 0.729982
8230 0.729972
8235 0.729961
8240 0.729951
8245 0.729941
8250 0.729931
8255 0.729921
8260 0.729911
8265 0.729901
8270 0.729891
8275 0.729881
8280 0.729871
8285 0.729861
8290 0.729852
8295 0.729842
8300 0.729832
8305 0.729823
8310 0.729813
8315 0.729804
8320 0.729794
8325 0.729785
8330 0.729775
8335 0.729766
8340 0.729756
8345 0.729747
8350 0.729738
8355 0.729729
8360 0.729719
8365 0.72971
8370 0.729701
8375 0.729692
8380 0.729683
8385 0.729674
8390 0.729665
8395 0.729656
8400 0.729647
8405 0.729638
8410 0.729629
8415 0.72962
8420 0.729612
8425 0.729603
8430 0.729594
8435 0.729585
8440 0.729577
8445 0.729568
8450 0.72956
8455 0.729551
8460 0.729542
8465 0.729534
8470 0.729525
8475 0.729517
8480 0.729509
8485 0.7295
8490 0.729492
8495 0.729483
8500 0.729475
8505 0.729467
8510 0.729459
8515 0.72945
8520 0.729442
8525 0.729434
8530 0.729426
8535 0.729418
8540 0.72941
8545 0.729402
8550 0.729394
8555 0.729386
8560 0.729378
8565 0.72937
8570 0.729362
8575 0.729354
8580 0.729346
8585 0.729338
8590 0.72933
8595 0.729323
8600 0.729315
8605 0.729307
8610 0.729299
8615 0.729292
8620 0.729284
8625 0.729276
8630 0.729269
8635 0.729261
8640 0.729254
8645 0.729246
8650 0.729239
8655 0.729231
8660 0.729224
8665 0.729216
8670 0.729209
8675 0.729202
8680 0.729194
8685 0.729187
8690 0.72918
8695 0.729172
8700 0.729165
8705 0.729158
8710 0.729151
8715 0.729144
8720 0.729137
8725 0.729129
8730 0.729122
8735 0.729115
8740 0.729108
8745 0.729101
8750 0.729094
8755 0.729087
8760 0.72908
8765 0.729074
8770 0.729067
8775 0.72906
8780 0.729053
8785 0.729046
8790 0.72904
8795 0.729033
8800 0.729026
8805 0.729019
8810 0.729013
8815 0.729006
8820 0.728999
8825 0.728993
8830 0.728986
8835 0.72898
8840 0.728973
8845 0.728967
8850 0.72896
8855 0.728954
8860 0.728948
8865 0.728941
8870 0.728935
8875 0.728928
8880 0.728922
8885 0.728916
8890 0.72891
8895 0.728903
8900 0.728897
8905 0.728891
8910 0.728885
8915 0.728879
8920 0.728873
8925 0.728867
8930 0.72886
8935 0.728854
8940 0.728848
8945 0.728842
8950 0.728837
8955 0.728831
8960 0.728825
8965 0.728819
8970 0.728813
8975 0.728807
8980 0.728801
8985 0.728796
8990 0.72879
8995 0.728784
9000 0.728778
9005 0.728773
9010 0.728767
9015 0.728762
9020 0.728756
9025 0.72875
9030 0.728745
9035 0.728739
9040 0.728734
9045 0.728728
9050 0.728723
9055 0.728718
9060 0.728712
9065 0.728707
9070 0.728701
9075 0.728696
9080 0.728691
9085 0.728686
9090 0.72868
9095 0.728675
9100 0.72867
9105 0.728665
9110 0.72866
9115 0.728655
9120 0.72865
9125 0.728645
9130 0.72864
9135 0.728635
9140 0.72863
9145 0.728625
9150 0.72862
9155 0.728615
9160 0.72861
9165 0.728605
9170 0.7286
9175 0.728596
9180 0.728591
9185 0.728586
9190 0.728581
9195 0.728577
9200 0.728572
9205 0.728567
9210 0.728563
9215 0.728558
9220 0.728554
9225 0.728549
9230 0.728545
9235 0.72854
9240 0.728536
9245 0.728531
9250 0.728527
9255 0.728523
9260 0.728518
9265 0.728514
9270 0.72851
9275 0.728506
9280 0.728501
9285 0.728497
9290 0.728493
9295 0.728489
9300 0.728485
9305 0.728481
9310 0.728477
9315 0.728472
9320 0.728468
9325 0.728464
9330 0.728461
9335 0.728457
9340 0.728453
9345 0.728449
9350 0.728445
9355 0.728441
9360 0.728437
9365 0.728434
9370 0.72843
9375 0.728426
9380 0.728422
9385 0.728419
9390 0.728415
9395 0.728412
9400 0.728408
9405 0.728404
9410 0.728401
9415 0.728397
9420 0.728394
9425 0.728391
9430 0.728387
9435 0.728384
9440 0.72838
9445 0.728377
9450 0.728374
9455 0.72837
9460 0.728367
9465 0.728364
9470 0.728361
9475 0.728358
9480 0.728354
9485 0.728351
9490 0.728348
9495 0.728345
9500 0.728342
9505 0.728339
9510 0.728336
9515 0.728333
9520 0.72833
9525 0.728327
9530 0.728325
9535 0.728322
9540 0.728319
9545 0.728316
9550 0.728313
9555 0.728311
9560 0.728308
9565 0.728305
9570 0.728303
9575 0.7283
9580 0.728298
9585 0.728295
9590 0.728292
9595 0.72829
9600 0.728287
9605 0.728285
9610 0.728283
9615 0.72828
9620 0.728278
9625 0.728275
9630 0.728273
9635 0.728271
9640 0.728269
9645 0.728266
9650 0.728264
9655 0.728262
9660 0.72826
9665 0.728258
9670 0.728256
9675 0.728254
9680 0.728252
9685 0.72825
9690 0.728248
9695 0.728246
9700 0.728244
9705 0.728242
9710 0.72824
9715 0.728238
9720 0.728236
9725 0.728235
9730 0.728233
9735 0.728231
9740 0.728229
9745 0.728228
9750 0.728226
9755 0.728224
9760 0.728223
9765 0.728221
9770 0.72822
9775 0.728218
9780 0.728217
9785 0.728215
9790 0.728214
9795 0.728213
9800 0.728211
9805 0.72821
9810 0.728209
9815 0.728207
9820 0.728206
9825 0.728205
9830 0.728204
9835 0.728202
9840 0.728201
9845 0.7282
9850 0.728199
9855 0.728198
9860 0.728197
9865 0.728196
9870 0.728195
9875 0.728194
9880 0.728193
9885 0.728192
9890 0.728191
9895 0.728191
9900 0.72819
9905 0.728189
9910 0.728188
9915 0.728188
9920 0.728187
9925 0.728186
9930 0.728186
9935 0.728185
9940 0.728184
9945 0.728184
9950 0.728183
9955 0.728183
9960 0.728182
9965 0.728182
9970 0.728181
9975 0.728181
9980 0.728181
9985 0.72818
9990 0.72818
9995 0.72818
10000 0.72818
10005 0.728179
10010 0.728179
10015 0.728179
10020 0.728179
10025 0.728179
10030 0.728179
10035 0.728179
10040 0.728179
10045 0.728179
10050 0.728179
10055 0.728179
10060 0.728179
10065 0.728179
10070 0.728179
10075 0.728179
10080 0.728179
10085 0.72818
10090 0.72818
10095 0.72818
10100 0.72818
10105 0.728181
10110 0.728181
10115 0.728181
10120 0.728182
10125 0.728182
10130 0.728183
10135 0.728183
10140 0.728184
10145 0.728184
10150 0.728185
10155 0.728186
10160 0.728186
10165 0.728187
10170 0.728188
10175 0.728188
10180 0.728189
10185 0.72819
10190 0.728191
10195 0.728191
10200 0.728192
10205 0.728193
10210 0.728194
10215 0.728195
10220 0.728196
10225 0.728197
10230 0.728198
10235 0.728199
10240 0.7282
10245 0.728201
10250 0.728202
10255 0.728203
10260 0.728204
10265 0.728205
10270 0.728207
10275 0.728208
10280 0.728209
10285 0.72821
10290 0.728211
10295 0.728213
10300 0.728214
10305 0.728215
10310 0.728217
10315 0.728218
10320 0.728219
10325 0.728221
10330 0.728222
10335 0.728224
10340 0.728225
10345 0.728227
10350 0.728228
10355 0.72823
10360 0.728232
10365 0.728233
10370 0.728235
10375 0.728236
10380 0.728238
10385 0.72824
10390 0.728242
10395 0.728243
10400 0.728245
10405 0.728247
10410 0.728249
10415 0.728251
10420 0.728252
10425 0.728254
10430 0.728256
10435 0.728258
10440 0.72826
10445 0.728262
10450 0.728264
10455 0.728266
10460 0.728268
10465 0.72827
10470 0.728272
10475 0.728274
10480 0.728277
10485 0.728279
10490 0.728281
10495 0.728283
10500 0.728285
10505 0.728288
10510 0.72829
10515 0.728292
10520 0.728295
10525 0.728297
10530 0.728299
10535 0.728302
10540 0.728304
10545 0.728307
10550 0.728309
10555 0.728311
10560 0.728314
10565 0.728316
10570 0.728319
10575 0.728322
10580 0.728324
10585 0.728327
10590 0.728329
10595 0.728332
10600 0.728335
10605 0.728338
10610 0.72834
10615 0.728343
10620 0.728346
10625 0.728349
10630 0.728352
10635 0.728354
10640 0.728357
10645 0.72836
10650 0.728363
10655 0.728366
10660 0.728369
10665 0.728372
10670 0.728375
10675 0.728378
10680 0.728381
10685 0.728384
10690 0.728387
10695 0.728391
10700 0.728394
10705 0.728397
10710 0.7284
10715 0.728403
10720 0.728407
10725 0.72841
10730 0.728413
10735 0.728417
10740 0.72842
10745 0.728423
10750 0.728427
10755 0.72843
10760 0.728434
10765 0.728437
10770 0.728441
10775 0.728444
10780 0.728448
10785 0.728451
10790 0.728455
10795 0.728458
10800 0.728462
10805 0.728466
10810 0.728469
10815 0.728473
10820 0.728477
10825 0.728481
10830 0.728485
10835 0.728488
10840 0.728492