10 0.293236
20 0.270718
30 0.256477
40 0.247427
50 0.241775
60 0.238425
70 0.236675
80 0.236063
90 0.236272
100 0.237088
110 0.238356
120 0.239971
130 0.241857
140 0.243961
150 0.246245
160 0.248685
170 0.251263
180 0.253974
190 0.256811
200 0.259774
210 0.262863
220 0.266079
230 0.26943
240 0.27292
250 0.276558
260 0.280348
270 0.284301
280 0.288428
290 0.292735
300 0.297237
310 0.301943
320 0.306865
330 0.312017
340 0.317412
350 0.323067
360 0.328998
370 0.335219
380 0.34175
390 0.348611
400 0.355826
410 0.363416
420 0.37141
430 0.379832
440 0.388716
450 0.398092
460 0.407998
470 0.41847
480 0.429553
490 0.441291
500 0.453737
510 0.466944
520 0.480975
530 0.495901
540 0.511791
550 0.528732
560 0.546811
570 0.566138
580 0.586825
590 0.609008
600 0.632831
610 0.658466
620 0.686093
630 0.715917
640 0.748176
650 0.783159
660 0.821173
670 0.862545
680 0.907702
690 0.957182
700 1.01156
710 1.07145
720 1.13734
730 1.20957
740 1.28827
750 1.37289
760 1.46189
770 1.55146
780 1.63384
790 1.69373
800 1.70249
810 1.62014
820 1.42683
830 1.21628
840 1.11787
850 1.09656
860 1.08326
870 1.07002
880 1.02236
890 1.04628
900 0.992466
910 1.064
920 1.02214
930 1.06478
940 1.00294
950 1.02986
960 0.978929
970 1.00634
980 0.964943
990 0.992333
1000 0.954009
1010 0.981023
1020 0.944956
1030 0.971937
1040 0.937705
1050 0.964124
1060 0.931122
1070 0.956802
1080 0.924934
1090 0.950022
1100 0.919232
1110 0.943782
1120 0.913883
1130 0.93798
1140 0.908893
1150 0.93258
1160 0.904122
1170 0.927538
1180 0.899637
1190 0.922903
1200 0.895489
1210 0.918625
1220 0.891614
1230 0.914608
1240 0.887951
1250 0.910803
1260 0.884472
1270 0.907185
1280 0.881151
1290 0.90373
1300 0.877972
1310 0.900425
1320 0.874921
1330 0.897257
1340 0.87199
1350 0.894215
1360 0.86917
1370 0.891291
1380 0.866451
1390 0.888474
1400 0.863828
1410 0.885758
1420 0.861293
1430 0.883135
1440 0.858842
1450 0.880599
1460 0.856469
1470 0.878145
1480 0.85417
1490 0.875768
1500 0.85194
1510 0.873464
1520 0.849776
1530 0.871228
1540 0.847674
1550 0.869058
1560 0.845631
1570 0.866948
1580 0.843644
1590 0.864897
1600 0.841709
1610 0.862901
1620 0.839826
1630 0.860957
1640 0.83799
1650 0.859064
1660 0.8362
1670 0.857218
1680 0.834454
1690 0.855417
1700 0.83275
1710 0.85366
1720 0.831085
1730 0.851944
1740 0.829459
1750 0.850268
1760 0.82787
1770 0.84863
1780 0.826315
1790 0.847028
1800 0.824794
1810 0.845461
1820 0.823306
1830 0.843928
1840 0.821848
1850 0.842427
1860 0.820421
1870 0.840956
1880 0.819022
1890 0.839516
1900 0.81765
1910 0.838104
1920 0.816306
1930 0.83672
1940 0.814987
1950 0.835362
1960 0.813693
1970 0.834031
1980 0.812423
1990 0.832723
2000 0.811177
2010 0.83144
2020 0.809952
2030 0.830181
2040 0.80875
2050 0.828943
2060 0.807568
2070 0.827727
2080 0.806407
2090 0.826533
2100 0.805265
2110 0.825358
2120 0.804143
2130 0.824204
2140 0.803039
2150 0.823068
2160 0.801953
2170 0.821989
2180 0.801008
2190 0.820939
2200 0.799927
2210 0.819835
2220 0.798942
2230 0.818785
2240 0.797876
2250 0.817721
2260 0.796922
2270 0.816706
2280 0.795881
2290 0.815669
2300 0.79495
2310 0.814682
2320 0.793939
2330 0.813675
2340 0.793035
2350 0.812716
2360 0.792052
2370 0.811737
2380 0.791175
2390 0.810806
2400 0.790219
2410 0.809855
2420 0.789368
2430 0.808985
2440 0.78855
2450 0.808108
2460 0.787702
2470 0.807212
2480 0.786845
2490 0.806328
2500 0.786
2510 0.805427
2520 0.785058
2530 0.804522
2540 0.78425
2550 0.803719
2560 0.783491
2570 0.802911
2580 0.782703
2590 0.802084
2600 0.781909
2610 0.801267
2620 0.78113
2630 0.800466
2640 0.780359
2650 0.799674
2660 0.779596
2670 0.79889
2680 0.778841
2690 0.798116
2700 0.778096
2710 0.797352
2720 0.77736
2730 0.796598
2740 0.776633
2750 0.795853
2760 0.775916
2770 0.795117
2780 0.775207
2790 0.794391
2800 0.774507
2810 0.793673
2820 0.773816
2830 0.792965
2840 0.773134
2850 0.792265
2860 0.77246
2870 0.791574
2880 0.771794
2890 0.790891
2900 0.771136
2910 0.790217
2920 0.770486
2930 0.789551
2940 0.769844
2950 0.788892
2960 0.769209
2970 0.788242
2980 0.768582
2990 0.787599
3000 0.767962
3010 0.786963
3020 0.767349
3030 0.786335
3040 0.766744
3050 0.785714
3060 0.766145
3070 0.7851
3080 0.765553
3090 0.784493
3100 0.764967
3110 0.783893
3120 0.764388
3130 0.7833
3140 0.763815
3150 0.782713
3160 0.763249
3170 0.782132
3180 0.762688
3190 0.781557
3200 0.762134
3210 0.780989
3220 0.761585
3230 0.780427
3240 0.761043
3250 0.779871
3260 0.760506
3270 0.779321
3280 0.759975
3290 0.778776
3300 0.759449
3310 0.778237
3320 0.758928
3330 0.777704
3340 0.758413
3350 0.777176
3360 0.757904
3370 0.776654
3380 0.757399
3390 0.776137
3400 0.756899
3410 0.775625
3420 0.756405
3430 0.775118
3440 0.755915
3450 0.774617
3460 0.755431
3470 0.774123
3480 0.754961
3490 0.773643
3500 0.754499
3510 0.773164
3520 0.754035
3530 0.772684
3540 0.753571
3550 0.772207
3560 0.753112
3570 0.771737
3580 0.752658
3590 0.771273
3600 0.752209
3610 0.770813
3620 0.751765
3630 0.770358
3640 0.751325
3650 0.769907
3660 0.750889
3670 0.76946
3680 0.750457
3690 0.769017
3700 0.750028
3710 0.768578
3720 0.749603
3730 0.768142
3740 0.749182
3750 0.76771
3760 0.748763
3770 0.767281
3780 0.748348
3790 0.766856
3800 0.747937
3810 0.766434
3820 0.747528
3830 0.766016
3840 0.747123
3850 0.765601
3860 0.746721
3870 0.765189
3880 0.746322
3890 0.764781
3900 0.745927
3910 0.764376
3920 0.745535
3930 0.763974
3940 0.745145
3950 0.763575
3960 0.744759
3970 0.76318
3980 0.744376
3990 0.762788
4000 0.743997
4010 0.762399
4020 0.74362
4030 0.762014
4040 0.743247
4050 0.761632
4060 0.742876
4070 0.761252
4080 0.742509
4090 0.760877
4100 0.742145
4110 0.760504
4120 0.741784
4130 0.760134
4140 0.741426
4150 0.759768
4160 0.741071
4170 0.759405
4180 0.74072
4190 0.759044
4200 0.740371
4210 0.758687
4220 0.740025
4230 0.758334
4240 0.739682
4250 0.757983
4260 0.739342
4270 0.757635
4280 0.739006
4290 0.75729
4300 0.738672
4310 0.756949
4320 0.738341
4330 0.75661
4340 0.738013
4350 0.756274
4360 0.737688
4370 0.755942
4380 0.737365
4390 0.755612
4400 0.737046
4410 0.755285
4420 0.736729
4430 0.754961
4440 0.736416
4450 0.75464
4460 0.736105
4470 0.754322
4480 0.735796
4490 0.754006
4500 0.735491
4510 0.753694
4520 0.735188
4530 0.753384
4540 0.734888
4550 0.753077
4560 0.734591
4570 0.752773
4580 0.734296
4590 0.752471
4600 0.734004
4610 0.752172
4620 0.733715
4630 0.751876
4640 0.733428
4650 0.751583
4660 0.733143
4670 0.751291
4680 0.73286
4690 0.751003
4700 0.732583
4710 0.750721
4720 0.732311
4730 0.750445
4740 0.732044
4750 0.750171
4760 0.731779
4770 0.749898
4780 0.731515
4790 0.749628
4800 0.731253
4810 0.74936
4820 0.730993
4830 0.749094
4840 0.730735
4850 0.74883
4860 0.730474
4870 0.748525
4880 0.730155
4890 0.748238
4900 0.729904
4910 0.748007
4920 0.729682
4930 0.747734
4940 0.729387
4950 0.747458
4960 0.729145
4970 0.747232
4980 0.728931
4990 0.746967
5000 0.728644
5010 0.746699
5020 0.728404
5030 0.746438
5040 0.728138
5050 0.746194
5060 0.727917
5070 0.745944
5080 0.727656
5090 0.745702
5100 0.727439
5110 0.745456
5120 0.727184
5130 0.74522
5140 0.726971
5150 0.744978
5160 0.72672
5170 0.744745
5180 0.726511
5190 0.744508
5200 0.726259
5210 0.744238
5220 0.725996
5230 0.744018
5240 0.72581
5250 0.743804
5260 0.725578
5270 0.743547
5280 0.725318
5290 0.743291
5300 0.725081
5310 0.743097
5320 0.724919
5330 0.742898
5340 0.724697
5350 0.742648
5360 0.724446
5370 0.742401
5380 0.724214
5390 0.742176
5400 0.723997
5410 0.741958
5420 0.723784
5430 0.741741
5440 0.723572
5450 0.741526
5460 0.723364
5470 0.741313
5480 0.723158
5490 0.741104
5500 0.722955
5510 0.740895
5520 0.722753
5530 0.740689
5540 0.722553
5550 0.740485
5560 0.722356
5570 0.740283
5580 0.72216
5590 0.740083
5600 0.721966
5610 0.739885
5620 0.721773
5630 0.739688
5640 0.721583
5650 0.739493
5660 0.721394
5670 0.7393
5680 0.721207
5690 0.739109
5700 0.721021
5710 0.73892
5720 0.720837
5730 0.738732
5740 0.720655
5750 0.738546
5760 0.720475
5770 0.738362
5780 0.720296
5790 0.738179
5800 0.720119
5810 0.737999
5820 0.719944
5830 0.73782
5840 0.71977
5850 0.737642
5860 0.719598
5870 0.737467
5880 0.719428
5890 0.737293
5900 0.719259
5910 0.73712
5920 0.719092
5930 0.73695
5940 0.718927
5950 0.736781
5960 0.718763
5970 0.736613
5980 0.718601
5990 0.736448
6000 0.71844
6010 0.736284
6020 0.718281
6030 0.736121
6040 0.718123
6050 0.73596
6060 0.717967
6070 0.735801
6080 0.717813
6090 0.735643
6100 0.71766
6110 0.735487
6120 0.717508
6130 0.735332
6140 0.717358
6150 0.735179
6160 0.71721
6170 0.735028
6180 0.717063
6190 0.734877
6200 0.716917
6210 0.734729
6220 0.716773
6230 0.734582
6240 0.716631
6250 0.734436
6260 0.716489
6270 0.734292
6280 0.716349
6290 0.734149
6300 0.716211
6310 0.734008
6320 0.716074
6330 0.733868
6340 0.715938
6350 0.73373
6360 0.715804
6370 0.733593
6380 0.715671
6390 0.733457
6400 0.71554
6410 0.733323
6420 0.715409
6430 0.73319
6440 0.715281
6450 0.733059
6460 0.715153
6470 0.732928
6480 0.715027
6490 0.7328
6500 0.714902
6510 0.732672
6520 0.714778
6530 0.732546
6540 0.714656
6550 0.732421
6560 0.714534
6570 0.732297
6580 0.714415
6590 0.732175
6600 0.714296
6610 0.732054
6620 0.714178
6630 0.731934
6640 0.714062
6650 0.731816
6660 0.713947
6670 0.731699
6680 0.713833
6690 0.731582
6700 0.713721
6710 0.731468
6720 0.713609
6730 0.731354
6740 0.713499
6750 0.731242
6760 0.71339
6770 0.73113
6780 0.713282
6790 0.73102
6800 0.713175
6810 0.730911
6820 0.713069
6830 0.730804
6840 0.712965
6850 0.730697
6860 0.712861
6870 0.730592
6880 0.712759
6890 0.730487
6900 0.712658
6910 0.730384
6920 0.712557
6930 0.730288
6940 0.712476
6950 0.730206
6960 0.712399
6970 0.730117
6980 0.712309
6990 0.730015
7000 0.712209
7010 0.729912
7020 0.71211
7030 0.729813
7040 0.712015
7050 0.729717
7060 0.711921
7070 0.729622
7080 0.71183
7090 0.72953
7100 0.71174
7110 0.729438
7120 0.711652
7130 0.729349
7140 0.711565
7150 0.72926
7160 0.711479
7170 0.729172
7180 0.711394
7190 0.729086
7200 0.71131
7210 0.729
7220 0.711227
7230 0.728916
7240 0.711145
7250 0.728832
7260 0.711064
7270 0.728749
7280 0.710983
7290 0.728667
7300 0.710904
7310 0.728586
7320 0.710825
7330 0.728506
7340 0.710747
7350 0.728427
7360 0.71067
7370 0.728348
7380 0.710593
7390 0.728271
7400 0.710518
7410 0.728194
7420 0.710443
7430 0.728118
7440 0.710369
7450 0.728043
7460 0.710296
7470 0.727968
7480 0.710223
7490 0.727895
7500 0.710152
7510 0.727822
7520 0.710081
7530 0.72775
7540 0.710011
7550 0.727678
7560 0.709941
7570 0.727608
7580 0.709873
7590 0.727538
7600 0.709805
7610 0.727469
7620 0.709738
7630 0.727401
7640 0.709671
7650 0.727334
7660 0.709606
7670 0.727267
7680 0.709541
7690 0.727201
7700 0.709477
7710 0.727136
7720 0.709413
7730 0.727071
7740 0.70935
7750 0.727008
7760 0.709288
7770 0.726945
7780 0.709227
7790 0.726879
7800 0.709161
7810 0.726815
7820 0.7091
7830 0.726758
7840 0.709046
7850 0.726704
7860 0.708995
7870 0.726651
7880 0.708943
7890 0.726597
7900 0.70889
7910 0.726543
7920 0.708837
7930 0.72649
7940 0.708785
7950 0.726436
7960 0.708732
7970 0.726383
7980 0.70868
7990 0.72633
8000 0.708629
8010 0.726278
8020 0.708578
8030 0.726227
8040 0.708528
8050 0.726176
8060 0.708478
8070 0.726126
8080 0.708429
8090 0.726076
8100 0.708381
8110 0.726027
8120 0.708333
8130 0.725979
8140 0.708286
8150 0.725931
8160 0.70824
8170 0.725884
8180 0.708194
8190 0.725838
8200 0.708149
8210 0.725792
8220 0.708104
8230 0.725747
8240 0.70806
8250 0.725703
8260 0.708017
8270 0.725659
8280 0.707974
8290 0.725615
8300 0.707932
8310 0.725573
8320 0.70789
8330 0.725531
8340 0.707849
8350 0.725489
8360 0.707808
8370 0.725448
8380 0.707769
8390 0.725408
8400 0.707729
8410 0.725369
8420 0.707691
8430 0.72533
8440 0.707653
8450 0.725291
8460 0.707615
8470 0.725253
8480 0.707578
8490 0.725216
8500 0.707542
8510 0.72518
8520 0.707506
8530 0.725144
8540 0.707471
8550 0.725108
8560 0.707436
8570 0.725125
8580 0.707573
8590 0.725184
8600 0.707535
8610 0.725143
8620 0.707577
8630 0.725139
8640 0.707494
8650 0.725091
8660 0.707532
8670 0.725144
8680 0.707617
8690 0.725185
8700 0.707646
8710 0.725176
8720 0.707633
8730 0.725153
8740 0.707615
8750 0.725135
8760 0.707598
8770 0.725115
8780 0.707576
8790 0.725091
8800 0.70755
8810 0.725065
8820 0.707524
8830 0.725039
8840 0.707498
8850 0.725012
8860 0.707471
8870 0.724986
8880 0.707444
8890 0.724959
8900 0.707417
8910 0.724932
8920 0.707391
8930 0.724906
8940 0.707365
8950 0.72488
8960 0.70734
8970 0.724855
8980 0.707315
8990 0.72483
9000 0.707291
9010 0.724806
9020 0.707267
9030 0.724782
9040 0.707244
9050 0.724759
9060 0.707221
9070 0.724737
9080 0.707199
9090 0.724715
9100 0.707177
9110 0.724693
9120 0.707156
9130 0.724672
9140 0.707136
9150 0.724652
9160 0.707116
9170 0.724632
9180 0.707097
9190 0.724613
9200 0.707078
9210 0.724595
9220 0.70706
9230 0.724577
9240 0.707042
9250 0.724559
9260 0.707025
9270 0.724543
9280 0.707009
9290 0.724526
9300 0.706993
9310 0.724511
9320 0.706978
9330 0.724496
9340 0.706963
9350 0.724481
9360 0.706949
9370 0.724468
9380 0.706935
9390 0.724454
9400 0.706922
9410 0.724442
9420 0.70691
9430 0.72443
9440 0.706898
9450 0.724419
9460 0.706887
9470 0.724408
9480 0.706876
9490 0.724398
9500 0.706866
9510 0.724388
9520 0.706857
9530 0.724379
9540 0.706848
9550 0.72437
9560 0.70684
9570 0.724363
9580 0.706832
9590 0.724355
9600 0.706825
9610 0.724349
9620 0.706818
9630 0.724343
9640 0.706812
9650 0.724337
9660 0.706794
9670 0.724233
9680 0.706635
9690 0.72417
9700 0.706645
9710 0.724239
9720 0.706719
9730 0.724202
9740 0.706606
9750 0.724152
9760 0.706608
9770 0.72412
9780 0.706545
9790 0.724127
9800 0.706594
9810 0.724115
9820 0.706523
9830 0.724019
9840 0.706428
9850 0.724047
9860 0.70653
9870 0.724088
9880 0.706504
9890 0.724013
9900 0.706406
9910 0.723941
9920 0.706367
9930 0.724024
9940 0.706515
9950 0.724086
9960 0.7065
9970 0.724013
9980 0.706405
9990 0.723944
10000 0.706359
10010 0.723933
10020 0.706356
10030 0.723939
10040 0.706357
10050 0.72394
10060 0.706355
10070 0.72394
10080 0.706357
10090 0.723944
10100 0.706362
10110 0.72395
10120 0.706367
10130 0.723957
10140 0.706374
10150 0.723964
10160 0.706381
10170 0.723972
10180 0.706389
10190 0.723981
10200 0.706398
10210 0.723991
10220 0.706407
10230 0.724001
10240 0.706417
10250 0.724012
10260 0.706428
10270 0.724024
10280 0.706439
10290 0.724036
10300 0.706451
10310 0.724048
10320 0.706463
10330 0.724061
10340 0.706475
10350 0.724075
10360 0.706488
10370 0.724089
10380 0.706502
10390 0.724103
10400 0.706516
10410 0.724118
10420 0.70653
10430 0.724134
10440 0.706545
10450 0.72415
10460 0.706561
10470 0.724167
10480 0.706577
10490 0.724184
10500 0.706593
10510 0.724201
10520 0.70661
10530 0.724238
10540 0.706682
10550 0.724311
10560 0.706757
10570 0.724351
10580 0.706784
10590 0.724355
10600 0.706784
10610 0.724354
10620 0.706788
10630 0.724363
10640 0.706799
10650 0.724378
10660 0.706814
10670 0.724396
10680 0.706831
10690 0.724414
10700 0.706849
10710 0.724435
10720 0.706867
10730 0.724442
10740 0.706866
10750 0.724449
10760 0.706879
10770 0.724476
10780 0.70691
10790 0.724512
10800 0.706945
10810 0.724547
10820 0.706976
10830 0.724577
10840 0.707005
10850 0.724605
10860 0.707033
10870 0.724633
10880 0.70706
10890 0.724661
10900 0.707086
10910 0.724689
10920 0.707113
10930 0.724717
10940 0.70714
10950 0.724745
10960 0.707167
10970 0.724773
10980 0.707194
10990 0.724802
11000 0.707222
11010 0.724832
11020 0.70725
11030 0.724861
11040 0.707279
11050 0.724891
11060 0.707308
11070 0.724922
11080 0.707338
11090 0.724953
11100 0.707368
11110 0.724984
11120 0.707398
11130 0.725016
11140 0.707429
11150 0.725048
11160 0.70746
11170 0.72508
11180 0.707491
11190 0.725113
11200 0.707523
11210 0.725146
11220 0.707555
11230 0.72518
11240 0.707588
11250 0.725214
11260 0.707621
11270 0.725248
11280 0.707654
11290 0.725283
11300 0.707688
11310 0.725318
11320 0.707722
11330 0.725354
11340 0.707756
11350 0.725389
11360 0.707791
11370 0.725426
11380 0.707826
11390 0.725462
11400 0.707861
11410 0.725499
11420 0.707897
11430 0.725536
11440 0.707933
11450 0.725574
11460 0.70797
11470 0.725612
11480 0.708006
11490 0.72565
11500 0.708043
11510 0.725688
11520 0.708081
11530 0.725727
11540 0.708118
11550 0.725766
11560 0.708156
11570 0.725806
11580 0.708195
11590 0.725846
11600 0.708233
11610 0.725886
11620 0.708272
11630 0.725926
11640 0.708311
11650 0.725967
11660 0.708351
11670 0.726008
11680 0.708391
11690 0.72605
11700 0.708431
11710 0.726091
11720 0.708471
11730 0.726133
11740 0.708512
11750 0.726176
11760 0.708553
11770 0.726218
11780 0.708594
11790 0.726261
11800 0.708636
11810 0.726304
11820 0.708678
11830 0.726348
11840 0.70872
11850 0.726392
11860 0.708762
11870 0.726436
11880 0.708805
11890 0.72648
11900 0.708848
11910 0.726525
11920 0.708891
11930 0.72657
11940 0.708935
11950 0.726615
11960 0.708979
11970 0.726661
11980 0.709023
11990 0.726706
12000 0.709068
12010 0.726753
12020 0.709112
12030 0.726799
12040 0.709157
12050 0.726846
12060 0.709202
12070 0.726893
12080 0.709248
12090 0.72694
12100 0.709294
12110 0.726987
12120 0.70934
12130 0.727035
12140 0.709386
12150 0.727083
12160 0.709433
12170 0.727132
12180 0.70948
12190 0.72718
12200 0.709527
12210 0.727229
12220 0.709574
12230 0.727278
12240 0.709622
12250 0.727328
12260 0.70967
12270 0.727377
12280 0.709718
12290 0.727427
12300 0.709767
12310 0.727478
12320 0.709815
12330 0.727528
12340 0.709864
12350 0.727579
12360 0.709914
12370 0.72763
12380 0.709963
12390 0.727681
12400 0.710013
12410 0.727733
12420 0.710063
12430 0.727785
12440 0.710113
12450 0.727837
12460 0.710164
12470 0.727889
12480 0.710215
12490 0.727942
12500 0.710266
12510 0.727995
12520 0.710317
12530 0.728048
12540 0.710369
12550 0.728102
12560 0.710421
12570 0.728155
12580 0.710473
12590 0.728209
12600 0.710525
12610 0.728264
12620 0.710578
12630 0.728318
12640 0.710631
12650 0.728373
12660 0.710684
12670 0.728428
12680 0.710737
12690 0.728483
12700 0.710791
12710 0.728539
12720 0.710845
12730 0.728594
12740 0.710899
12750 0.72865
12760 0.710953
12770 0.728707
12780 0.711008
12790 0.728763
12800 0.711063
12810 0.72882
12820 0.711118
12830 0.728877
12840 0.711173
12850 0.728934
12860 0.711229
12870 0.728992
12880 0.711285
12890 0.72905
12900 0.711341
12910 0.729108
12920 0.711397
12930 0.729166
12940 0.711454
12950 0.729225
12960 0.711511
12970 0.729284
12980 0.711568
12990 0.729343
13000 0.711625
13010 0.729402
13020 0.711683
13030 0.729461
13040 0.711741
13050 0.729521
13060 0.711799
13070 0.729581
13080 0.711857
13090 0.729642
13100 0.711915
13110 0.729702
13120 0.711974
13130 0.729763
13140 0.712033
13150 0.729824
13160 0.712092
13170 0.729885
13180 0.712152
13190 0.729947
13200 0.712212
13210 0.730008
13220 0.712272
13230 0.73007
13240 0.712332
13250 0.730132
13260 0.712392
13270 0.730195
13280 0.712453
13290 0.730258
13300 0.712514
13310 0.73032
13320 0.712575
13330 0.730384
13340 0.712636
13350 0.730447
13360 0.712698
13370 0.730511
13380 0.712759
13390 0.730574
13400 0.712821
13410 0.730638
13420 0.712884
13430 0.730703
13440 0.712946
13450 0.730767
13460 0.713009
13470 0.730832
13480 0.713072
13490 0.730897
13500 0.713135
13510 0.730962
13520 0.713198
13530 0.731028
13540 0.713262
13550 0.731093
13560 0.713326
13570 0.731159
13580 0.71339
13590 0.731225
13600 0.713454
13610 0.731292
13620 0.713518
13630 0.731358
13640 0.713583
13650 0.731425
13660 0.713651
13670 0.731508
13680 0.713739
13690 0.731591
13700 0.713815
13710 0.731655
13720 0.713872
13730 0.73169
13740 0.713868
13750 0.731691
13760 0.713868
13770 0.731735
13780 0.713925
13790 0.73182
13800 0.714011
13810 0.731911
13820 0.714095
13830 0.731993
13840 0.714173
13850 0.732071
13860 0.714249
13870 0.732148
13880 0.714324
13890 0.732223
13900 0.714397
13910 0.732298
13920 0.714469
13930 0.732373
13940 0.714542
13950 0.732447
13960 0.714614
13970 0.732522
13980 0.714686
13990 0.732596
14000 0.714758
14010 0.732671
14020 0.71483
14030 0.732745
14040 0.714902
14050 0.732819
14060 0.714975
14070 0.732894
14080 0.715047
14090 0.732969
14100 0.71512
14110 0.733043
14120 0.715192
14130 0.733118
14140 0.715265
14150 0.733193
14160 0.715338
14170 0.733268
14180 0.71541
14190 0.733344
14200 0.715483
14210 0.733419
14220 0.715557
14230 0.733494
14240 0.71563
14250 0.73357
14260 0.715703
14270 0.733646
14280 0.715777
14290 0.733722
14300 0.715851
14310 0.733798
14320 0.715924
14330 0.733874
14340 0.715998
14350 0.73395
14360 0.716073
14370 0.734027
14380 0.716147
14390 0.734103
14400 0.716236
14410 0.73429
14420 0.71648
14430 0.734429
14440 0.716552
14450 0.734534
14460 0.71671
14470 0.734712
14480 0.716902
14490 0.734867
14500 0.717036
14510 0.734966
14520 0.717125
14530 0.735048
14540 0.717208
14550 0.735133
14560 0.717292
14570 0.735217
14580 0.717371
14590 0.735298
14600 0.717448
14610 0.735377
14620 0.717524
14630 0.735455
14640 0.717599
14650 0.735533
14660 0.717674
14670 0.73561
14680 0.717749
14690 0.735687
14700 0.717824
14710 0.735708
14720 0.717712
14730 0.735686
14740 0.717796
14750 0.735829
14760 0.717975
14770 0.735916
14780 0.717909
14790 0.735904
14800 0.718001
14810 0.735985
14820 0.717992
14830 0.736032
14840 0.718133
14850 0.736133
14860 0.718133
14870 0.736118
14880 0.718081
14890 0.736118
14900 0.718093
14910 0.736174
14920 0.718152
14930 0.736245
14940 0.718215
14950 0.736311
14960 0.718278
14970 0.736379
14980 0.718346
14990 0.736452
15000 0.71842
15010 0.736528
15020 0.718494
15030 0.736605
15040 0.71857
15050 0.736683
15060 0.718646
15070 0.736762
15080 0.718724
15090 0.736842
15100 0.718802
15110 0.736922
15120 0.71888
15130 0.737002
15140 0.718958
15150 0.737083
15160 0.719037
15170 0.737164
15180 0.719116
15190 0.737246
15200 0.719195
15210 0.737327
15220 0.719274
15230 0.737409
15240 0.719354
15250 0.737491
15260 0.719433
15270 0.737573
15280 0.719513
15290 0.737655
15300 0.719593
15310 0.737732
15320 0.719654
15330 0.737795
15340 0.719713
15350 0.737868
15360 0.719789
15370 0.737957
15380 0.719877
15390 0.738049
15400 0.719965
15410 0.738139
15420 0.720052
15430 0.738227
15440 0.720137
15450 0.738314
15460 0.720222
15470 0.738401
15480 0.720307
15490 0.738488
15500 0.72039
15510 0.738574
15520 0.720474
15530 0.738661
15540 0.720558
15550 0.738747
15560 0.720642
15570 0.738833
15580 0.720726
15590 0.73892
15600 0.72081
15610 0.739006
15620 0.720894
15630 0.739093
15640 0.720978
15650 0.73918
15660 0.721062
15670 0.739267
15680 0.721146
15690 0.739353
15700 0.721231
15710 0.73944
15720 0.721315
15730 0.739528
15740 0.7214
15750 0.739615
15760 0.721484
15770 0.739702
15780 0.721569
15790 0.739789
15800 0.721654
15810 0.739877
15820 0.721739
15830 0.739965
15840 0.721824
15850 0.740052
15860 0.721909
15870 0.74014
15880 0.721995
15890 0.740228
15900 0.72208
15910 0.740316
15920 0.722166
15930 0.740404
15940 0.722251
15950 0.740493
15960 0.722337
15970 0.740581
15980 0.722423
15990 0.74067
16000 0.722509
16010 0.740758
16020 0.722595
16030 0.740847
16040 0.722681
16050 0.740936
16060 0.722767
16070 0.741024
16080 0.722853
16090 0.741113
16100 0.72294
16110 0.741202
16120 0.723026
16130 0.741292
16140 0.723113
16150 0.741381
16160 0.7232
16170 0.74147
16180 0.723286
16190 0.74156
16200 0.723373
16210 0.741649
16220 0.72346
16230 0.741739
16240 0.723547
16250 0.741828
16260 0.723634
16270 0.741918
16280 0.723722
16290 0.742008
16300 0.723809
16310 0.742098
16320 0.723897
16330 0.742189
16340 0.723986
16350 0.74228
16360 0.724073
16370 0.742369
16380 0.724159
16390 0.742457
16400 0.724245
16410 0.742546
16420 0.724331
16430 0.742636
16440 0.724419
16450 0.742726
16460 0.724507
16470 0.742818
16480 0.724596
16490 0.742909
16500 0.724685
16510 0.743001
16520 0.724775
16530 0.743093
16540 0.724864
16550 0.743186
16560 0.724954
16570 0.743278
16580 0.725044
16590 0.743371
16600 0.725134
16610 0.743463
16620 0.725224
16630 0.743556
16640 0.725314
16650 0.743648
16660 0.725404
16670 0.743741
16680 0.725494
16690 0.743834
16700 0.725584
16710 0.743927
16720 0.725674
16730 0.74402
16740 0.725765
16750 0.744113
16760 0.725855
16770 0.744206
16780 0.725945
16790 0.744299
16800 0.726035
16810 0.744392
16820 0.726126
16830 0.744485
16840 0.726216
16850 0.744578
16860 0.726307
16870 0.744671
16880 0.726397
16890 0.744764
16900 0.726488
16910 0.744857
16920 0.726578
16930 0.744951
16940 0.726669
16950 0.745044
16960 0.726759
16970 0.745137
16980 0.72685
16990 0.74523
17000 0.726941
17010 0.745324
17020 0.727031
17030 0.745417
17040 0.727122
17050 0.745511
17060 0.727213
17070 0.745604
17080 0.727303
17090 0.745697
17100 0.727394
17110 0.745791
17120 0.727485
17130 0.745884
17140 0.727576
17150 0.745978
17160 0.727667
17170 0.746072
17180 0.727758
17190 0.746165
17200 0.727848
17210 0.746259
17220 0.727939
17230 0.746352
17240 0.72803
17250 0.746446
17260 0.728121
17270 0.746538
17280 0.72821
17290 0.746631
17300 0.728301
17310 0.746726
17320 0.728394
17330 0.746822
17340 0.728487
17350 0.746917
17360 0.728579
17370 0.747012
17380 0.728671
17390 0.747106
17400 0.728762
17410 0.747199
17420 0.728852
17430 0.747292
17440 0.728942
17450 0.747385
17460 0.729032
17470 0.747477
17480 0.729122
17490 0.74757
17500 0.729211
17510 0.747662
17520 0.729301
17530 0.747754
17540 0.729391
17550 0.747847
17560 0.729481
17570 0.747939
17580 0.72957
17590 0.748032
17600 0.72966
17610 0.748124
17620 0.72975
17630 0.748217
17640 0.72984
17650 0.748309
17660 0.72993
17670 0.748402
17680 0.73002
17690 0.748495
17700 0.73011
17710 0.748587
17720 0.7302
17730 0.74868
17740 0.73029
17750 0.748773
17760 0.73038
17770 0.748865
17780 0.73047
17790 0.748958
17800 0.73056
17810 0.749051
17820 0.73065
17830 0.749143
17840 0.73074
17850 0.749236
17860 0.730836
17870 0.749371
17880 0.73099
17890 0.749489
17900 0.731083
17910 0.749596
17920 0.731202
17930 0.749691
17940 0.731279
17950 0.749793
17960 0.731401
17970 0.749926
17980 0.731535
17990 0.750048
18000 0.731647
18010 0.75015
18020 0.731744
18030 0.750247
18040 0.73184
18050 0.750344
18060 0.731934
18070 0.75044
18080 0.732027
18090 0.750535
18100 0.732118
18110 0.750629
18120 0.73221
18130 0.750723
18140 0.7323
18150 0.750816
18160 0.732391
18170 0.750909
18180 0.732481
18190 0.751002
18200 0.732571
18210 0.751095
18220 0.732661
18230 0.751187
18240 0.732751
18250 0.75128
18260 0.732841
18270 0.751372
18280 0.73293
18290 0.751464
18300 0.73302
18310 0.751556
18320 0.733109
18330 0.751649
18340 0.733199
18350 0.751741
18360 0.733288
18370 0.751832
18380 0.733377
18390 0.751924
18400 0.733467
18410 0.752016
18420 0.733556
18430 0.752108
18440 0.733645
18450 0.7522
18460 0.733734
18470 0.752291
18480 0.733823
18490 0.752383
18500 0.733912
18510 0.752475
18520 0.734001
18530 0.752566
18540 0.73409
18550 0.752657
18560 0.734179
18570 0.752749
18580 0.734268
18590 0.75284
18600 0.734356
18610 0.752931
18620 0.734445
18630 0.753023
18640 0.734534
18650 0.753114
18660 0.734622
18670 0.753205
18680 0.734711
18690 0.753296
18700 0.734799
18710 0.753387
18720 0.734887
18730 0.753478
18740 0.734976
18750 0.753569
18760 0.735064
18770 0.753659
18780 0.735152
18790 0.75375
18800 0.73524
18810 0.753841
18820 0.735328
18830 0.753931
18840 0.735416
18850 0.754022
18860 0.735504
18870 0.754112
18880 0.735592
18890 0.754202
18900 0.735679
18910 0.754293
18920 0.735767
18930 0.754383
18940 0.735855
18950 0.754473
18960 0.735942
18970 0.754563
18980 0.73603
18990 0.754653
19000 0.736117
19010 0.754743
19020 0.736204
19030 0.754833
19040 0.736292
19050 0.754922
19060 0.736379
19070 0.755012
19080 0.736466
19090 0.755102
19100 0.736553
19110 0.755191
19120 0.73664
19130 0.75528
19140 0.736726
19150 0.75537
19160 0.736813
19170 0.755459
19180 0.7369
19190 0.755548
19200 0.736986
19210 0.755637
19220 0.737073
19230 0.755726
19240 0.737159
19250 0.755815
19260 0.737245
19270 0.755904
19280 0.737332
19290 0.755992
19300 0.737418
19310 0.756081
19320 0.737504
19330 0.756169
19340 0.73759
19350 0.756258
19360 0.737676
19370 0.756346
19380 0.737761
19390 0.756434
19400 0.737847
19410 0.756522
19420 0.737933
19430 0.75661
19440 0.738018
19450 0.756698
19460 0.738103
19470 0.756786
19480 0.738189
19490 0.756874
19500 0.738274
19510 0.756961
19520 0.738359
19530 0.757049
19540 0.738444
19550 0.757136
19560 0.738529
19570 0.757224
19580 0.738614
19590 0.757311
19600 0.738698
19610 0.757398
19620 0.738783
19630 0.757485
19640 0.738868
19650 0.757572
19660 0.738952
19670 0.757659
19680 0.739036
19690 0.757746
19700 0.739121
19710 0.757832
19720 0.739205
19730 0.757919
19740 0.739289
19750 0.758005
19760 0.739373
19770 0.758092
19780 0.739457
19790 0.758178
19800 0.73954
19810 0.758264
19820 0.739624
19830 0.75835
19840 0.739708
19850 0.758436
19860 0.739791
19870 0.758519
19880 0.739867
19890 0.758597
19900 0.739941
19910 0.758679
19920 0.740022
19930 0.758767
19940 0.740109
19950 0.758857
19960 0.740196
19970 0.758946
19980 0.740282
19990 0.759035
20000 0.740368
20010 0.759122
20020 0.740454
20030 0.75921
20040 0.740538
20050 0.759297
20060 0.740623
20070 0.759383
20080 0.740707
20090 0.75947
20100 0.740791
20110 0.759556
20120 0.740874
20130 0.759642
20140 0.740958
20150 0.759728
20160 0.741041
20170 0.759814
20180 0.741124
20190 0.759899
20200 0.741207
20210 0.759985
20220 0.74129
20230 0.76007
20240 0.741373
20250 0.760155
20260 0.741456
20270 0.76024
20280 0.741538
20290 0.760325
20300 0.741621
20310 0.76041
20320 0.741703
20330 0.760494
20340 0.741785
20350 0.760579
20360 0.741867
20370 0.760663
20380 0.741949
20390 0.760747
20400 0.742031
20410 0.760831
20420 0.742112
20430 0.760915
20440 0.742194
20450 0.760999
20460 0.742275
20470 0.761083
20480 0.742357
20490 0.761167
20500 0.742438
20510 0.76125
20520 0.742519
20530 0.761333
20540 0.7426
20550 0.761417
20560 0.742681
20570 0.7615
20580 0.742761
20590 0.761583
20600 0.742842
20610 0.761666
20620 0.742923
20630 0.761749
20640 0.743003
20650 0.761832
20660 0.743084
20670 0.761914
20680 0.743164
20690 0.761997
20700 0.743244
20710 0.762079
20720 0.743324
20730 0.762162
20740 0.743404
20750 0.762244
20760 0.743484
20770 0.762326
20780 0.743564
20790 0.762408
20800 0.743644
20810 0.76249
20820 0.743723
20830 0.762572
20840 0.743803
20850 0.762654
20860 0.743883
20870 0.762736
20880 0.743962
20890 0.762818
20900 0.744041
20910 0.7629