       1.5 0.00217294
       4.5 0.000747723
       7.5 0.00046268
      10.5 0.000340519
      13.5 0.000272651
      16.5 0.000229463
      19.5 0.000199563
      22.5 0.000177637
      25.5 0.00016087
      28.5 0.000147633
      31.5 0.000136917
      34.5 0.000128064
      37.5 0.000120629
      40.5 0.000114294
      43.5 0.000108834
      46.5 0.000104078
      49.5 9.98981e-05
      52.5 9.61963e-05
      55.5 9.28946e-05
      58.5 8.99316e-05
      61.5 8.72577e-05
      64.5 8.48324e-05
      67.5 8.26228e-05
      70.5 8.06012e-05
      73.5 7.87447e-05
      76.5 7.70337e-05
      79.5 7.54519e-05
      82.5 7.39851e-05
      85.5 7.26213e-05
      88.5 7.13499e-05
      91.5 7.01619e-05
      94.5 6.90493e-05
      97.5 6.80052e-05
     100.5 6.6959e-05
     103.5 6.56552e-05
     106.5 6.44156e-05
     109.5 6.3235e-05
     112.5 6.21089e-05
     115.5 6.10329e-05
     118.5 6.00035e-05
     121.5 5.90172e-05
     124.5 5.8071e-05
     127.5 5.71621e-05
     130.5 5.62881e-05
     133.5 5.54465e-05
     136.5 5.46354e-05
     139.5 5.38529e-05
     142.5 5.30971e-05
     145.5 5.23665e-05
     148.5 5.16597e-05
     151.5 5.09752e-05
     154.5 5.03119e-05
     157.5 4.96685e-05
     160.5 4.9044e-05
     163.5 4.84374e-05
     166.5 4.78478e-05
     169.5 4.72743e-05
     172.5 4.67162e-05
     175.5 4.61726e-05
     178.5 4.56429e-05
     181.5 4.51265e-05
     184.5 4.46227e-05
     187.5 4.4131e-05
     190.5 4.36508e-05
     193.5 4.31817e-05
     196.5 4.27231e-05
     199.5 4.22747e-05
     202.5 4.1836e-05
     205.5 4.14066e-05
     208.5 4.09861e-05
     211.5 4.05743e-05
     214.5 4.01708e-05
     217.5 3.97752e-05
     220.5 3.93873e-05
     223.5 3.90067e-05
     226.5 3.86333e-05
     229.5 3.82668e-05
     232.5 3.7907e-05
     235.5 3.75535e-05
     238.5 3.72062e-05
     241.5 3.6865e-05
     244.5 3.65295e-05
     247.5 3.61996e-05
     250.5 3.58752e-05
     253.5 3.55561e-05
     256.5 3.5242e-05
     259.5 3.4933e-05
     262.5 3.46287e-05
     265.5 3.43291e-05
     268.5 3.4034e-05
     271.5 3.37433e-05
     274.5 3.34569e-05
     277.5 3.31747e-05
     280.5 3.28965e-05
     283.5 3.26222e-05
     286.5 3.23518e-05
     289.5 3.20852e-05
     292.5 3.18221e-05
     295.5 3.15626e-05
     298.5 3.13066e-05
     301.5 3.1054e-05
     304.5 3.08046e-05
     307.5 3.05585e-05
     310.5 3.03155e-05
     313.5 3.00755e-05
     316.5 2.98386e-05
     319.5 2.96045e-05
     322.5 2.93734e-05
     325.5 2.9145e-05
     328.5 2.89194e-05
     331.5 2.86964e-05
     334.5 2.84761e-05
     337.5 2.82583e-05
     340.5 2.8043e-05
     343.5 2.78302e-05
     346.5 2.76198e-05
     349.5 2.74117e-05
     352.5 2.7206e-05
     355.5 2.70025e-05
     358.5 2.68013e-05
     361.5 2.66022e-05
     364.5 2.64053e-05
     367.5 2.62104e-05
     370.5 2.60176e-05
     373.5 2.58269e-05
     376.5 2.56381e-05
     379.5 2.54513e-05
     382.5 2.52664e-05
     385.5 2.50834e-05
     388.5 2.49022e-05
     391.5 2.47228e-05
     394.5 2.45453e-05
     397.5 2.43694e-05
     400.5 2.41953e-05
     403.5 2.40229e-05
     406.5 2.38522e-05
     409.5 2.36831e-05
     412.5 2.35157e-05
     415.5 2.33498e-05
     418.5 2.31855e-05
     421.5 2.30227e-05
     424.5 2.28615e-05
     427.5 2.27017e-05
     430.5 2.25434e-05
     433.5 2.23866e-05
     436.5 2.22312e-05
     439.5 2.20772e-05
     442.5 2.19246e-05
     445.5 2.17734e-05
     448.5 2.16235e-05
     451.5 2.14749e-05
     454.5 2.13277e-05
     457.5 2.11817e-05
     460.5 2.10371e-05
     463.5 2.08936e-05
     466.5 2.07515e-05
     469.5 2.06105e-05
     472.5 2.04707e-05
     475.5 2.03322e-05
     478.5 2.01948e-05
     481.5 2.00586e-05
     484.5 1.99235e-05
     487.5 1.97896e-05
     490.5 1.96567e-05
     493.5 1.9525e-05
     496.5 1.93944e-05
     499.5 1.92648e-05
     502.5 1.91363e-05
     505.5 1.90089e-05
     508.5 1.88825e-05
     511.5 1.87571e-05
     514.5 1.86327e-05
     517.5 1.85093e-05
     520.5 1.83869e-05
     523.5 1.82655e-05
     526.5 1.81451e-05
     529.5 1.80256e-05
     532.5 1.7907e-05
     535.5 1.77894e-05
     538.5 1.76727e-05
     541.5 1.7557e-05
     544.5 1.74421e-05
     547.5 1.73281e-05
     550.5 1.7215e-05
     553.5 1.71028e-05
     556.5 1.69914e-05
     559.5 1.68809e-05
     562.5 1.67712e-05
     565.5 1.66624e-05
     568.5 1.65544e-05
     571.5 1.64472e-05
     574.5 1.63408e-05
     577.5 1.62352e-05
     580.5 1.61304e-05
     583.5 1.60264e-05
     586.5 1.59232e-05
     589.5 1.58208e-05
     592.5 1.57191e-05
     595.5 1.56181e-05
     598.5 1.55179e-05
     601.5 1.54185e-05
     604.5 1.53198e-05
     607.5 1.52218e-05
     610.5 1.51245e-05
     613.5 1.50279e-05
     616.5 1.4932e-05
     619.5 1.48369e-05
     622.5 1.47424e-05
     625.5 1.46486e-05
     628.5 1.45554e-05
     631.5 1.4463e-05
     634.5 1.43712e-05
     637.5 1.42801e-05
     640.5 1.41896e-05
     643.5 1.40998e-05
     646.5 1.40106e-05
     649.5 1.3922e-05
     652.5 1.38341e-05
     655.5 1.37468e-05
     658.5 1.36601e-05
     661.5 1.3574e-05
     664.5 1.34885e-05
     667.5 1.34036e-05
     670.5 1.33193e-05
     673.5 1.32357e-05
     676.5 1.31525e-05
     679.5  1.307e-05
     682.5 1.29881e-05
     685.5 1.29067e-05
     688.5 1.28259e-05
     691.5 1.27456e-05
     694.5 1.26659e-05
     697.5 1.25867e-05
     700.5 1.25081e-05
     703.5 1.24301e-05
     706.5 1.23525e-05
     709.5 1.22755e-05
     712.5 1.2199e-05
     715.5 1.21231e-05
     718.5 1.20476e-05
     721.5 1.19727e-05
     724.5 1.18983e-05
     727.5 1.18244e-05
     730.5 1.1751e-05
     733.5 1.16781e-05
     736.5 1.16057e-05
     739.5 1.15337e-05
     742.5 1.14623e-05
     745.5 1.13913e-05
     748.5 1.13209e-05
     751.5 1.12509e-05
     754.5 1.11813e-05
     757.5 1.11122e-05
     760.5 1.10436e-05
     763.5 1.09755e-05
     766.5 1.09078e-05
     769.5 1.08405e-05
     772.5 1.07737e-05
     775.5 1.07074e-05
     778.5 1.06414e-05
     781.5 1.0576e-05
     784.5 1.05109e-05
     787.5 1.04463e-05
     790.5 1.03821e-05
     793.5 1.03183e-05
     796.5 1.0255e-05
     799.5 1.01921e-05
     802.5 1.01296e-05
     805.5 1.00675e-05
     808.5 1.00058e-05
     811.5 9.94446e-06
     814.5 9.88357e-06
     817.5 9.82308e-06
     820.5 9.76298e-06
     823.5 9.70328e-06
     826.5 9.64396e-06
     829.5 9.58504e-06
     832.5 9.52649e-06
     835.5 9.46833e-06
     838.5 9.41054e-06
     841.5 9.35313e-06
     844.5 9.29609e-06
     847.5 9.23942e-06
     850.5 9.18312e-06
     853.5 9.12718e-06
     856.5 9.0716e-06
     859.5 9.01638e-06
     862.5 8.96152e-06
     865.5 8.90701e-06
     868.5 8.85285e-06
     871.5 8.79904e-06
     874.5 8.74558e-06
     877.5 8.69246e-06
     880.5 8.63968e-06
     883.5 8.58724e-06
     886.5 8.53513e-06
     889.5 8.48336e-06
     892.5 8.43192e-06
     895.5 8.38081e-06
     898.5 8.33002e-06
     901.5 8.27956e-06
     904.5 8.22942e-06
     907.5 8.1796e-06
     910.5 8.13009e-06
     913.5 8.0809e-06
     916.5 8.03203e-06
     919.5 7.98346e-06
     922.5 7.9352e-06
     925.5 7.88725e-06
     928.5 7.8396e-06
     931.5 7.79226e-06
     934.5 7.74521e-06
     937.5 7.69846e-06
     940.5 7.65201e-06
     943.5 7.60585e-06
     946.5 7.55998e-06
     949.5 7.5144e-06
     952.5 7.46911e-06
     955.5 7.4241e-06
     958.5 7.37938e-06
     961.5 7.33494e-06
     964.5 7.29077e-06
     967.5 7.24689e-06
     970.5 7.20328e-06
     973.5 7.15994e-06
     976.5 7.11688e-06
     979.5 7.07408e-06
     982.5 7.03156e-06
     985.5 6.9893e-06
     988.5 6.9473e-06
     991.5 6.90557e-06
     994.5 6.8641e-06
     997.5 6.82289e-06
    1000.5 6.78193e-06
    1003.5 6.74123e-06
    1006.5 6.70079e-06
    1009.5 6.66059e-06
    1012.5 6.62065e-06
    1015.5 6.58095e-06
    1018.5 6.5415e-06
    1021.5 6.5023e-06
    1024.5 6.46334e-06
    1027.5 6.42463e-06
    1030.5 6.38615e-06
    1033.5 6.34791e-06
    1036.5 6.30991e-06
    1039.5 6.27215e-06
    1042.5 6.23462e-06
    1045.5 6.19732e-06
    1048.5 6.16025e-06
    1051.5 6.12342e-06
    1054.5 6.08681e-06
    1057.5 6.05042e-06
    1060.5 6.01426e-06
    1063.5 5.97833e-06
    1066.5 5.94262e-06
    1069.5 5.90712e-06
    1072.5 5.87185e-06
    1075.5 5.83679e-06
    1078.5 5.80195e-06
    1081.5 5.76733e-06
    1084.5 5.73291e-06
    1087.5 5.69871e-06
    1090.5 5.66472e-06
    1093.5 5.63094e-06
    1096.5 5.59737e-06
    1099.5  5.564e-06
    1102.5 5.53084e-06
    1105.5 5.49788e-06
    1108.5 5.46513e-06
    1111.5 5.43257e-06
    1114.5 5.40022e-06
    1117.5 5.36806e-06
    1120.5 5.3361e-06
    1123.5 5.30434e-06
    1126.5 5.27277e-06
    1129.5 5.24139e-06
    1132.5 5.2102e-06
    1135.5 5.17921e-06
    1138.5 5.14841e-06
    1141.5 5.11779e-06
    1144.5 5.08736e-06
    1147.5 5.05712e-06
    1150.5 5.02706e-06
    1153.5 4.99719e-06
    1156.5 4.96749e-06
    1159.5 4.93798e-06
    1162.5 4.90865e-06
    1165.5 4.8795e-06
    1168.5 4.85052e-06
    1171.5 4.82173e-06
    1174.5 4.7931e-06
    1177.5 4.76465e-06
    1180.5 4.73638e-06
    1183.5 4.70827e-06
    1186.5 4.68034e-06
    1189.5 4.65258e-06
    1192.5 4.62499e-06
    1195.5 4.59756e-06
    1198.5 4.5703e-06
    1201.5 4.5432e-06
    1204.5 4.51627e-06
    1207.5 4.48951e-06
    1210.5 4.4629e-06
    1213.5 4.43646e-06
    1216.5 4.41018e-06
    1219.5 4.38405e-06
    1222.5 4.35809e-06
    1225.5 4.33228e-06
    1228.5 4.30663e-06
    1231.5 4.28113e-06
    1234.5 4.25579e-06
    1237.5 4.2306e-06
    1240.5 4.20557e-06
    1243.5 4.18068e-06
    1246.5 4.15595e-06
    1249.5 4.13136e-06
    1252.5 4.10693e-06
    1255.5 4.08264e-06
    1258.5 4.0585e-06
    1261.5 4.0345e-06
    1264.5 4.01065e-06
    1267.5 3.98694e-06
    1270.5 3.96338e-06
    1273.5 3.93996e-06
    1276.5 3.91667e-06
    1279.5 3.89353e-06
    1282.5 3.87053e-06
    1285.5 3.84767e-06
    1288.5 3.82494e-06
    1291.5 3.80236e-06
    1294.5 3.7799e-06
    1297.5 3.75759e-06
    1300.5 3.7354e-06
    1303.5 3.71336e-06
    1306.5 3.69144e-06
    1309.5 3.66965e-06
    1312.5  3.648e-06
    1315.5 3.62648e-06
    1318.5 3.60508e-06
    1321.5 3.58382e-06
    1324.5 3.56268e-06
    1327.5 3.54167e-06
    1330.5 3.52078e-06
    1333.5 3.50002e-06
    1336.5 3.47939e-06
    1339.5 3.45888e-06
    1342.5 3.43849e-06
    1345.5 3.41822e-06
    1348.5 3.39808e-06
    1351.5 3.37806e-06
    1354.5 3.35815e-06
    1357.5 3.33837e-06
    1360.5 3.3187e-06
    1363.5 3.29915e-06
    1366.5 3.27972e-06
    1369.5 3.26041e-06
    1372.5 3.24121e-06
    1375.5 3.22213e-06
    1378.5 3.20316e-06
    1381.5 3.1843e-06
    1384.5 3.16556e-06
    1387.5 3.14693e-06
    1390.5 3.12841e-06
    1393.5   3.11e-06
    1396.5 3.0917e-06
    1399.5 3.07351e-06
    1402.5 3.05543e-06
    1405.5 3.03745e-06
    1408.5 3.01959e-06
    1411.5 3.00183e-06
    1414.5 2.98418e-06
    1417.5 2.96663e-06
    1420.5 2.94919e-06
    1423.5 2.93185e-06
    1426.5 2.91461e-06
    1429.5 2.89748e-06
    1432.5 2.88045e-06
    1435.5 2.86352e-06
    1438.5 2.84669e-06
    1441.5 2.82996e-06
    1444.5 2.81334e-06
    1447.5 2.79681e-06
    1450.5 2.78038e-06
    1453.5 2.76404e-06
    1456.5 2.74781e-06
    1459.5 2.73167e-06
    1462.5 2.71563e-06
    1465.5 2.69968e-06
    1468.5 2.68383e-06
    1471.5 2.66807e-06
    1474.5 2.65241e-06
    1477.5 2.63684e-06
    1480.5 2.62136e-06
    1483.5 2.60597e-06
    1486.5 2.59068e-06
    1489.5 2.57548e-06
    1492.5 2.56036e-06
    1495.5 2.54534e-06
    1498.5 2.53041e-06
    1501.5 2.51556e-06
    1504.5 2.5008e-06
    1507.5 2.48613e-06
    1510.5 2.47155e-06
    1513.5 2.45706e-06
    1516.5 2.44265e-06
    1519.5 2.42832e-06
    1522.5 2.41408e-06
    1525.5 2.39993e-06
    1528.5 2.38586e-06
    1531.5 2.37187e-06
    1534.5 2.35797e-06
    1537.5 2.34415e-06
    1540.5 2.33041e-06
    1543.5 2.31675e-06
    1546.5 2.30317e-06
    1549.5 2.28968e-06
    1552.5 2.27626e-06
    1555.5 2.26292e-06
    1558.5 2.24967e-06
    1561.5 2.23649e-06
    1564.5 2.22338e-06
    1567.5 2.21036e-06
    1570.5 2.19741e-06
    1573.5 2.18454e-06
    1576.5 2.17175e-06
    1579.5 2.15903e-06
    1582.5 2.14639e-06
    1585.5 2.13382e-06
    1588.5 2.12133e-06
    1591.5 2.10891e-06
    1594.5 2.09656e-06
    1597.5 2.08429e-06
    1600.5 2.07209e-06
    1603.5 2.05996e-06
    1606.5 2.04791e-06
    1609.5 2.03592e-06
    1612.5 2.02401e-06
    1615.5 2.01216e-06
    1618.5 2.00039e-06
    1621.5 1.98869e-06
    1624.5 1.97705e-06
    1627.5 1.96549e-06
    1630.5 1.95399e-06
    1633.5 1.94256e-06
    1636.5 1.9312e-06
    1639.5 1.9199e-06
    1642.5 1.90867e-06
    1645.5 1.89751e-06
    1648.5 1.88641e-06
    1651.5 1.87538e-06
    1654.5 1.86442e-06
    1657.5 1.85352e-06
    1660.5 1.84268e-06
    1663.5 1.83191e-06
    1666.5 1.8212e-06
    1669.5 1.81055e-06
    1672.5 1.79997e-06
    1675.5 1.78945e-06
    1678.5 1.77899e-06
    1681.5 1.7686e-06
    1684.5 1.75826e-06
    1687.5 1.74799e-06
    1690.5 1.73777e-06
    1693.5 1.72762e-06
    1696.5 1.71752e-06
    1699.5 1.70749e-06
    1702.5 1.69752e-06
    1705.5 1.6876e-06
    1708.5 1.67774e-06
    1711.5 1.66794e-06
    1714.5 1.6582e-06
    1717.5 1.64851e-06
    1720.5 1.63889e-06
    1723.5 1.62932e-06
    1726.5 1.6198e-06
    1729.5 1.61034e-06
    1732.5 1.60094e-06
    1735.5 1.59159e-06
    1738.5 1.5823e-06
    1741.5 1.57306e-06
    1744.5 1.56388e-06
    1747.5 1.55475e-06
    1750.5 1.54568e-06
    1753.5 1.53665e-06
    1756.5 1.52768e-06
    1759.5 1.51877e-06
    1762.5 1.5099e-06
    1765.5 1.50109e-06
    1768.5 1.49233e-06
    1771.5 1.48363e-06
    1774.5 1.47497e-06
    1777.5 1.46636e-06
    1780.5 1.45781e-06
    1783.5 1.4493e-06
    1786.5 1.44085e-06
    1789.5 1.43244e-06
    1792.5 1.42408e-06
    1795.5 1.41578e-06
    1798.5 1.40752e-06
    1801.5 1.39931e-06
    1804.5 1.39115e-06
    1807.5 1.38304e-06
    1810.5 1.37497e-06
    1813.5 1.36695e-06
    1816.5 1.35898e-06
    1819.5 1.35106e-06
    1822.5 1.34318e-06
    1825.5 1.33535e-06
    1828.5 1.32756e-06
    1831.5 1.31982e-06
    1834.5 1.31213e-06
    1837.5 1.30448e-06
    1840.5 1.29687e-06
    1843.5 1.28931e-06
    1846.5 1.2818e-06
    1849.5 1.27433e-06
    1852.5 1.2669e-06
    1855.5 1.25952e-06
    1858.5 1.25218e-06
    1861.5 1.24488e-06
    1864.5 1.23763e-06
    1867.5 1.23041e-06
    1870.5 1.22324e-06
    1873.5 1.21612e-06
    1876.5 1.20903e-06
    1879.5 1.20199e-06
    1882.5 1.19498e-06
    1885.5 1.18802e-06
    1888.5 1.1811e-06
    1891.5 1.17422e-06
    1894.5 1.16738e-06
    1897.5 1.16058e-06
    1900.5 1.15382e-06
    1903.5 1.1471e-06
    1906.5 1.14042e-06
    1909.5 1.13378e-06
    1912.5 1.12717e-06
    1915.5 1.12061e-06
    1918.5 1.11408e-06
    1921.5 1.1076e-06
    1924.5 1.10115e-06
    1927.5 1.09474e-06
    1930.5 1.08836e-06
    1933.5 1.08202e-06
    1936.5 1.07573e-06
    1939.5 1.06946e-06
    1942.5 1.06324e-06
    1945.5 1.05705e-06
    1948.5 1.05089e-06
    1951.5 1.04478e-06
    1954.5 1.03869e-06
    1957.5 1.03265e-06
    1960.5 1.02664e-06
    1963.5 1.02066e-06
    1966.5 1.01472e-06
    1969.5 1.00882e-06
    1972.5 1.00295e-06
    1975.5 9.9711e-07
    1978.5 9.91308e-07
    1981.5 9.85539e-07
    1984.5 9.79804e-07
    1987.5 9.74103e-07
    1990.5 9.68435e-07
    1993.5 9.62801e-07
    1996.5 9.57199e-07
    1999.5 9.5163e-07
    2002.5 9.46094e-07
    2005.5 9.4059e-07
    2008.5 9.35119e-07
    2011.5 9.29679e-07
    2014.5 9.24271e-07
    2017.5 9.18895e-07
    2020.5 9.1355e-07
    2023.5 9.08236e-07
    2026.5 9.02954e-07
    2029.5 8.97702e-07
    2032.5 8.92481e-07
    2035.5 8.87291e-07
    2038.5 8.82131e-07
    2041.5 8.77001e-07
    2044.5 8.71901e-07
    2047.5 8.66831e-07
    2050.5 8.61791e-07
    2053.5 8.5678e-07
    2056.5 8.51799e-07
    2059.5 8.46846e-07
    2062.5 8.41922e-07
    2065.5 8.37028e-07
    2068.5 8.32161e-07
    2071.5 8.27324e-07
    2074.5 8.22514e-07
    2077.5 8.17733e-07
    2080.5 8.12979e-07
    2083.5 8.08254e-07
    2086.5 8.03555e-07
    2089.5 7.98885e-07
    2092.5 7.94241e-07
    2095.5 7.89625e-07
    2098.5 7.85036e-07
    2101.5 7.80473e-07
    2104.5 7.75938e-07
    2107.5 7.71428e-07
    2110.5 7.66945e-07
    2113.5 7.62488e-07
    2116.5 7.58058e-07
    2119.5 7.53653e-07
    2122.5 7.49273e-07
    2125.5 7.4492e-07
    2128.5 7.40592e-07
    2131.5 7.36289e-07
    2134.5 7.32011e-07
    2137.5 7.27758e-07
    2140.5 7.2353e-07
    2143.5 7.19326e-07
    2146.5 7.15147e-07
    2149.5 7.10993e-07
    2152.5 7.06863e-07
    2155.5 7.02757e-07
    2158.5 6.98675e-07
    2161.5 6.94616e-07
    2164.5 6.90582e-07
    2167.5 6.8657e-07
    2170.5 6.82583e-07
    2173.5 6.78618e-07
    2176.5 6.74677e-07
    2179.5 6.70759e-07
    2182.5 6.66863e-07
    2185.5 6.6299e-07
    2188.5 6.5914e-07
    2191.5 6.55312e-07
    2194.5 6.51507e-07
    2197.5 6.47724e-07
    2200.5 6.43963e-07
    2203.5 6.40223e-07
    2206.5 6.36506e-07
    2209.5 6.3281e-07
    2212.5 6.29136e-07
    2215.5 6.25483e-07
    2218.5 6.21852e-07
    2221.5 6.18242e-07
    2224.5 6.14652e-07
    2227.5 6.11084e-07
    2230.5 6.07537e-07
    2233.5 6.0401e-07
    2236.5 6.00503e-07
    2239.5 5.97018e-07
    2242.5 5.93552e-07
    2245.5 5.90107e-07
    2248.5 5.86682e-07
    2251.5 5.83276e-07
    2254.5 5.79891e-07
    2257.5 5.76525e-07
    2260.5 5.73179e-07
    2263.5 5.69852e-07
    2266.5 5.66545e-07
    2269.5 5.63257e-07
    2272.5 5.59988e-07
    2275.5 5.56739e-07
    2278.5 5.53508e-07
    2281.5 5.50296e-07
    2284.5 5.47102e-07
    2287.5 5.43928e-07
    2290.5 5.40772e-07
    2293.5 5.37634e-07
    2296.5 5.34514e-07
    2299.5 5.31413e-07
    2302.5 5.2833e-07
    2305.5 5.25264e-07
    2308.5 5.22217e-07
    2311.5 5.19187e-07
    2314.5 5.16175e-07
    2317.5 5.1318e-07
    2320.5 5.10203e-07
    2323.5 5.07243e-07
    2326.5 5.04301e-07
    2329.5 5.01375e-07
    2332.5 4.98467e-07
    2335.5 4.95575e-07
    2338.5 4.92701e-07
    2341.5 4.89843e-07
    2344.5 4.87002e-07
    2347.5 4.84177e-07
    2350.5 4.81369e-07
    2353.5 4.78577e-07
    2356.5 4.75801e-07
    2359.5 4.73041e-07
    2362.5 4.70298e-07
    2365.5 4.6757e-07
    2368.5 4.64859e-07
    2371.5 4.62163e-07
    2374.5 4.59483e-07
    2377.5 4.56818e-07
    2380.5 4.54169e-07
    2383.5 4.51535e-07
    2386.5 4.48917e-07
    2389.5 4.46314e-07
    2392.5 4.43726e-07
    2395.5 4.41153e-07
    2398.5 4.38595e-07
    2401.5 4.36052e-07
    2404.5 4.33524e-07
    2407.5 4.3101e-07
    2410.5 4.28511e-07
    2413.5 4.26027e-07
    2416.5 4.23557e-07
    2419.5 4.21101e-07
    2422.5 4.1866e-07
    2425.5 4.16233e-07
    2428.5 4.1382e-07
    2431.5 4.11421e-07
    2434.5 4.09036e-07
    2437.5 4.06665e-07
    2440.5 4.04308e-07
    2443.5 4.01964e-07
    2446.5 3.99634e-07
    2449.5 3.97318e-07
    2452.5 3.95015e-07
    2455.5 3.92725e-07
    2458.5 3.90449e-07
    2461.5 3.88186e-07
    2464.5 3.85936e-07
    2467.5 3.83699e-07
    2470.5 3.81475e-07
    2473.5 3.79264e-07
    2476.5 3.77066e-07
    2479.5 3.74881e-07
    2482.5 3.72708e-07
    2485.5 3.70549e-07
    2488.5 3.68401e-07
    2491.5 3.66266e-07
    2494.5 3.64144e-07
    2497.5 3.62034e-07
    2500.5 3.59936e-07
    2503.5 3.5785e-07
    2506.5 3.55777e-07
    2509.5 3.53715e-07
    2512.5 3.51666e-07
    2515.5 3.49628e-07
    2518.5 3.47602e-07
    2521.5 3.45588e-07
    2524.5 3.43586e-07
    2527.5 3.41595e-07
    2530.5 3.39616e-07
    2533.5 3.37648e-07
    2536.5 3.35692e-07
    2539.5 3.33747e-07
    2542.5 3.31814e-07
    2545.5 3.29892e-07
    2548.5 3.27981e-07
    2551.5 3.2608e-07
    2554.5 3.24192e-07
    2557.5 3.22314e-07
    2560.5 3.20446e-07
    2563.5 3.1859e-07
    2566.5 3.16745e-07
    2569.5 3.1491e-07
    2572.5 3.13086e-07
    2575.5 3.11272e-07
    2578.5 3.09469e-07
    2581.5 3.07677e-07
    2584.5 3.05895e-07
    2587.5 3.04123e-07
    2590.5 3.02362e-07
    2593.5 3.0061e-07
    2596.5 2.98869e-07
    2599.5 2.97138e-07
    2602.5 2.95418e-07
    2605.5 2.93707e-07
    2608.5 2.92006e-07
    2611.5 2.90315e-07
    2614.5 2.88633e-07
    2617.5 2.86962e-07
    2620.5  2.853e-07
    2623.5 2.83648e-07
    2626.5 2.82005e-07
    2629.5 2.80372e-07
    2632.5 2.78749e-07
    2635.5 2.77135e-07
    2638.5 2.7553e-07
    2641.5 2.73935e-07
    2644.5 2.72348e-07
    2647.5 2.70771e-07
    2650.5 2.69204e-07
    2653.5 2.67645e-07
    2656.5 2.66095e-07
    2659.5 2.64555e-07
    2662.5 2.63023e-07
    2665.5  2.615e-07
    2668.5 2.59986e-07
    2671.5 2.58481e-07
    2674.5 2.56984e-07
    2677.5 2.55497e-07
    2680.5 2.54017e-07
    2683.5 2.52547e-07
    2686.5 2.51085e-07
    2689.5 2.49631e-07
    2692.5 2.48186e-07
    2695.5 2.46749e-07
    2698.5 2.45321e-07
    2701.5 2.43901e-07
    2704.5 2.42489e-07
    2707.5 2.41085e-07
    2710.5 2.3969e-07
    2713.5 2.38302e-07
    2716.5 2.36923e-07
    2719.5 2.35552e-07
    2722.5 2.34188e-07
    2725.5 2.32833e-07
    2728.5 2.31485e-07
    2731.5 2.30145e-07
    2734.5 2.28813e-07
    2737.5 2.27489e-07
    2740.5 2.26172e-07
    2743.5 2.24863e-07
    2746.5 2.23562e-07
    2749.5 2.22268e-07
    2752.5 2.20982e-07
    2755.5 2.19703e-07
    2758.5 2.18431e-07
    2761.5 2.17167e-07
    2764.5 2.1591e-07
    2767.5 2.14661e-07
    2770.5 2.13419e-07
    2773.5 2.12184e-07
    2776.5 2.10956e-07
    2779.5 2.09735e-07
    2782.5 2.08521e-07
    2785.5 2.07315e-07
    2788.5 2.06115e-07
    2791.5 2.04922e-07
    2794.5 2.03736e-07
    2797.5 2.02558e-07
    2800.5 2.01386e-07
    2803.5 2.0022e-07
    2806.5 1.99062e-07
    2809.5 1.9791e-07
    2812.5 1.96765e-07
    2815.5 1.95626e-07
    2818.5 1.94495e-07
    2821.5 1.93369e-07
    2824.5 1.9225e-07
    2827.5 1.91138e-07
    2830.5 1.90032e-07
    2833.5 1.88933e-07
    2836.5 1.8784e-07
    2839.5 1.86753e-07
    2842.5 1.85673e-07
    2845.5 1.84598e-07
    2848.5 1.83531e-07
    2851.5 1.82469e-07
    2854.5 1.81413e-07
    2857.5 1.80364e-07
    2860.5 1.7932e-07
    2863.5 1.78283e-07
    2866.5 1.77252e-07
    2869.5 1.76226e-07
    2872.5 1.75207e-07
    2875.5 1.74193e-07
    2878.5 1.73186e-07
    2881.5 1.72184e-07
    2884.5 1.71188e-07
    2887.5 1.70198e-07
    2890.5 1.69213e-07
    2893.5 1.68235e-07
    2896.5 1.67262e-07
    2899.5 1.66294e-07
    2902.5 1.65332e-07
    2905.5 1.64376e-07
    2908.5 1.63425e-07
    2911.5 1.6248e-07
    2914.5 1.6154e-07
    2917.5 1.60606e-07
    2920.5 1.59677e-07
    2923.5 1.58754e-07
    2926.5 1.57835e-07
    2929.5 1.56923e-07
    2932.5 1.56015e-07
    2935.5 1.55113e-07
    2938.5 1.54216e-07
    2941.5 1.53324e-07
    2944.5 1.52437e-07
    2947.5 1.51556e-07
    2950.5 1.50679e-07
    2953.5 1.49808e-07
    2956.5 1.48941e-07
    2959.5 1.4808e-07
    2962.5 1.47224e-07
    2965.5 1.46373e-07
    2968.5 1.45526e-07
    2971.5 1.44685e-07
    2974.5 1.43848e-07
    2977.5 1.43016e-07
    2980.5 1.42189e-07
    2983.5 1.41367e-07
    2986.5 1.4055e-07
    2989.5 1.39737e-07
    2992.5 1.38929e-07
    2995.5 1.38126e-07
    2998.5 1.37327e-07
