5 1.09236
10 1.09001
15 1.08822
20 1.08721
25 1.08683
30 1.08677
35 1.0868
40 1.08682
45 1.08679
50 1.0867
55 1.08656
60 1.08639
65 1.0862
70 1.086
75 1.08579
80 1.08558
85 1.08537
90 1.08516
95 1.08494
100 1.08472
105 1.08449
110 1.08427
115 1.08404
120 1.08381
125 1.08359
130 1.08336
135 1.08313
140 1.08289
145 1.08266
150 1.08242
155 1.08219
160 1.08195
165 1.0817
170 1.08146
175 1.08121
180 1.08096
185 1.0807
190 1.08044
195 1.08018
200 1.07992
205 1.07965
210 1.07938
215 1.07911
220 1.07883
225 1.07854
230 1.07825
235 1.07796
240 1.07767
245 1.07737
250 1.07706
255 1.07675
260 1.07644
265 1.07611
270 1.07579
275 1.07546
280 1.07513
285 1.07478
290 1.07444
295 1.0741
300 1.07374
305 1.07338
310 1.073
315 1.07262
320 1.07223
325 1.07185
330 1.07146
335 1.07106
340 1.07065
345 1.07023
350 1.06981
355 1.06937
360 1.06893
365 1.06848
370 1.06802
375 1.06756
380 1.06708
385 1.06661
390 1.06612
395 1.06563
400 1.06513
405 1.06462
410 1.06411
415 1.06359
420 1.06307
425 1.06254
430 1.062
435 1.06146
440 1.06092
445 1.06037
450 1.05982
455 1.05926
460 1.0587
465 1.05814
470 1.05757
475 1.05701
480 1.05644
485 1.05587
490 1.05531
495 1.05474
500 1.05418
505 1.05361
510 1.05305
515 1.05249
520 1.05193
525 1.05138
530 1.05083
535 1.05029
540 1.04975
545 1.04922
550 1.04869
555 1.04816
560 1.04765
565 1.04714
570 1.04663
575 1.04613
580 1.04564
585 1.04515
590 1.04468
595 1.0442
600 1.04374
605 1.04329
610 1.04284
615 1.04241
620 1.04198
625 1.04156
630 1.04114
635 1.04074
640 1.04034
645 1.03995
650 1.03957
655 1.03919
660 1.03882
665 1.03845
670 1.03809
675 1.03774
680 1.03739
685 1.03705
690 1.03671
695 1.03637
700 1.03604
705 1.03571
710 1.03538
715 1.03506
720 1.03474
725 1.03442
730 1.0341
735 1.03379
740 1.03347
745 1.03316
750 1.03285
755 1.03254
760 1.03223
765 1.03192
770 1.03162
775 1.03131
780 1.031
785 1.0307
790 1.03039
795 1.03009
800 1.02978
805 1.02948
810 1.02917
815 1.02887
820 1.02857
825 1.02826
830 1.02796
835 1.02765
840 1.02735
845 1.02704
850 1.02674
855 1.02643
860 1.02612
865 1.02581
870 1.02551
875 1.02519
880 1.02488
885 1.02457
890 1.02426
895 1.02394
900 1.02363
905 1.02331
910 1.02299
915 1.02268
920 1.02236
925 1.02204
930 1.02172
935 1.0214
940 1.02108
945 1.02075
950 1.02043
955 1.02011
960 1.01979
965 1.01947
970 1.01915
975 1.01883
980 1.01851
985 1.0182
990 1.01788
995 1.01756
1000 1.01725
1005 1.01693
1010 1.01662
1015 1.01631
1020 1.016
1025 1.01568
1030 1.01537
1035 1.01507
1040 1.01476
1045 1.01445
1050 1.01415
1055 1.01384
1060 1.01354
1065 1.01324
1070 1.01293
1075 1.01263
1080 1.01233
1085 1.01203
1090 1.01173
1095 1.01144
1100 1.01114
1105 1.01084
1110 1.01055
1115 1.01025
1120 1.00996
1125 1.00966
1130 1.00937
1135 1.00908
1140 1.00878
1145 1.00849
1150 1.0082
1155 1.00791
1160 1.00762
1165 1.00733
1170 1.00704
1175 1.00675
1180 1.00646
1185 1.00617
1190 1.00588
1195 1.00559
1200 1.0053
1205 1.00501
1210 1.00473
1215 1.00444
1220 1.00415
1225 1.00386
1230 1.00357
1235 1.00329
1240 1.003
1245 1.00271
1250 1.00243
1255 1.00214
1260 1.00185
1265 1.00157
1270 1.00128
1275 1.001
1280 1.00071
1285 1.00043
1290 1.00014
1295 0.999857
1300 0.999572
1305 0.999288
1310 0.999004
1315 0.99872
1320 0.998436
1325 0.998152
1330 0.997869
1335 0.997586
1340 0.997303
1345 0.99702
1350 0.996738
1355 0.996456
1360 0.996174
1365 0.995893
1370 0.995611
1375 0.99533
1380 0.99505
1385 0.994769
1390 0.994489
1395 0.994208
1400 0.993928
1405 0.993649
1410 0.993369
1415 0.99309
1420 0.99281
1425 0.992531
1430 0.992252
1435 0.991974
1440 0.991696
1445 0.991418
1450 0.991141
1455 0.990864
1460 0.990587
1465 0.990311
1470 0.990036
1475 0.989761
1480 0.989487
1485 0.989214
1490 0.988941
1495 0.988668
1500 0.988397
1505 0.988126
1510 0.987856
1515 0.987587
1520 0.987319
1525 0.987051
1530 0.986784
1535 0.986518
1540 0.986253
1545 0.985988
1550 0.985725
1555 0.985462
1560 0.9852
1565 0.984938
1570 0.984678
1575 0.984418
1580 0.984159
1585 0.983901
1590 0.983643
1595 0.983387
1600 0.983131
1605 0.982876
1610 0.982621
1615 0.982367
1620 0.982114
1625 0.981862
1630 0.98161
1635 0.98136
1640 0.981109
1645 0.98086
1650 0.980611
1655 0.980363
1660 0.980115
1665 0.979868
1670 0.979621
1675 0.979375
1680 0.97913
1685 0.978885
1690 0.978641
1695 0.978398
1700 0.978155
1705 0.977912
1710 0.97767
1715 0.977429
1720 0.977188
1725 0.976947
1730 0.976707
1735 0.976468
1740 0.976229
1745 0.97599
1750 0.975752
1755 0.975515
1760 0.975277
1765 0.975041
1770 0.974805
1775 0.974569
1780 0.974333
1785 0.974099
1790 0.973864
1795 0.97363
1800 0.973396
1805 0.973163
1810 0.97293
1815 0.972698
1820 0.972466
1825 0.972235
1830 0.972003
1835 0.971773
1840 0.971542
1845 0.971312
1850 0.971082
1855 0.970853
1860 0.970624
1865 0.970395
1870 0.970166
1875 0.969938
1880 0.96971
1885 0.969483
1890 0.969255
1895 0.969028
1900 0.968802
1905 0.968576
1910 0.96835
1915 0.968125
1920 0.9679
1925 0.967675
1930 0.967452
1935 0.967228
1940 0.967005
1945 0.966783
1950 0.966561
1955 0.96634
1960 0.966119
1965 0.965899
1970 0.965679
1975 0.96546
1980 0.965242
1985 0.965024
1990 0.964807
1995 0.96459
2000 0.964374
2005 0.964158
2010 0.963943
2015 0.963729
2020 0.963515
2025 0.963302
2030 0.963089
2035 0.962877
2040 0.962666
2045 0.962455
2050 0.962244
2055 0.962034
2060 0.961825
2065 0.961616
2070 0.961408
2075 0.9612
2080 0.960993
2085 0.960786
2090 0.96058
2095 0.960374
2100 0.960169
2105 0.959964
2110 0.95976
2115 0.959557
2120 0.959353
2125 0.959151
2130 0.958948
2135 0.958746
2140 0.958545
2145 0.958344
2150 0.958144
2155 0.957944
2160 0.957744
2165 0.957545
2170 0.957346
2175 0.957148
2180 0.95695
2185 0.956753
2190 0.956556
2195 0.956359
2200 0.956163
2205 0.955967
2210 0.955772
2215 0.955577
2220 0.955382
2225 0.955188
2230 0.954994
2235 0.954801
2240 0.954608
2245 0.954415
2250 0.954223
2255 0.954031
2260 0.95384
2265 0.953649
2270 0.953458
2275 0.953268
2280 0.953078
2285 0.952889
2290 0.952699
2295 0.952511
2300 0.952322
2305 0.952134
2310 0.951946
2315 0.951759
2320 0.951572
2325 0.951385
2330 0.951199
2335 0.951012
2340 0.950826
2345 0.950641
2350 0.950455
2355 0.95027
2360 0.950086
2365 0.949901
2370 0.949717
2375 0.949533
2380 0.94935
2385 0.949166
2390 0.948984
2395 0.948801
2400 0.948619
2405 0.948437
2410 0.948256
2415 0.948075
2420 0.947895
2425 0.947714
2430 0.947535
2435 0.947355
2440 0.947176
2445 0.946998
2450 0.94682
2455 0.946642
2460 0.946465
2465 0.946288
2470 0.946112
2475 0.945936
2480 0.94576
2485 0.945585
2490 0.94541
2495 0.945236
2500 0.945062
2505 0.944889
2510 0.944715
2515 0.944543
2520 0.94437
2525 0.944199
2530 0.944027
2535 0.943856
2540 0.943685
2545 0.943515
2550 0.943345
2555 0.943176
2560 0.943006
2565 0.942838
2570 0.942669
2575 0.942501
2580 0.942334
2585 0.942166
2590 0.941999
2595 0.941833
2600 0.941667
2605 0.941501
2610 0.941335
2615 0.94117
2620 0.941005
2625 0.940841
2630 0.940677
2635 0.940513
2640 0.94035
2645 0.940187
2650 0.940023
2655 0.93986
2660 0.939696
2665 0.939531
2670 0.939366
2675 0.939201
2680 0.939035
2685 0.938869
2690 0.938702
2695 0.938535
2700 0.938368
2705 0.938201
2710 0.938034
2715 0.937866
2720 0.937699
2725 0.937532
2730 0.937365
2735 0.937197
2740 0.93703
2745 0.936864
2750 0.936697
2755 0.93653
2760 0.936364
2765 0.936198
2770 0.936032
2775 0.935866
2780 0.935701
2785 0.935535
2790 0.935371
2795 0.935206
2800 0.935042
2805 0.934878
2810 0.934714
2815 0.93455
2820 0.934387
2825 0.934225
2830 0.934062
2835 0.9339
2840 0.933738
2845 0.933577
2850 0.933416
2855 0.933255
2860 0.933094
2865 0.932934
2870 0.932775
2875 0.932615
2880 0.932456
2885 0.932297
2890 0.932139
2895 0.931981
2900 0.931823
2905 0.931666
2910 0.931509
2915 0.931352
2920 0.931196
2925 0.93104
2930 0.930884
2935 0.930729
2940 0.930574
2945 0.930419
2950 0.930265
2955 0.930111
2960 0.929957
2965 0.929804
2970 0.929651
2975 0.929498
2980 0.929345
2985 0.929193
2990 0.929041
2995 0.92889
3000 0.928738
3005 0.928587
3010 0.928437
3015 0.928286
3020 0.928136
3025 0.927986
3030 0.927836
3035 0.927686
3040 0.927537
3045 0.927388
3050 0.927239
3055 0.92709
3060 0.926942
3065 0.926794
3070 0.926646
3075 0.926499
3080 0.926351
3085 0.926204
3090 0.926058
3095 0.925911
3100 0.925765
3105 0.925619
3110 0.925473
3115 0.925328
3120 0.925183
3125 0.925038
3130 0.924894
3135 0.92475
3140 0.924606
3145 0.924462
3150 0.924319
3155 0.924176
3160 0.924034
3165 0.923891
3170 0.923749
3175 0.923608
3180 0.923466
3185 0.923325
3190 0.923185
3195 0.923044
3200 0.922904
3205 0.922765
3210 0.922625
3215 0.922486
3220 0.922347
3225 0.922209
3230 0.92207
3235 0.921932
3240 0.921795
3245 0.921657
3250 0.92152
3255 0.921383
3260 0.921247
3265 0.921111
3270 0.920975
3275 0.920839
3280 0.920704
3285 0.920569
3290 0.920435
3295 0.920301
3300 0.920167
3305 0.920033
3310 0.9199
3315 0.919767
3320 0.919634
3325 0.919502
3330 0.919369
3335 0.919238
3340 0.919106
3345 0.918975
3350 0.918844
3355 0.918713
3360 0.918582
3365 0.918452
3370 0.918322
3375 0.918192
3380 0.918063
3385 0.917933
3390 0.917804
3395 0.917675
3400 0.917546
3405 0.917418
3410 0.91729
3415 0.917162
3420 0.917034
3425 0.916906
3430 0.916779
3435 0.916651
3440 0.916524
3445 0.916397
3450 0.916271
3455 0.916144
3460 0.916018
3465 0.915892
3470 0.915766
3475 0.91564
3480 0.915515
3485 0.915389
3490 0.915264
3495 0.915139
3500 0.915014
3505 0.91489
3510 0.914765
3515 0.914641
3520 0.914517
3525 0.914393
3530 0.91427
3535 0.914146
3540 0.914023
3545 0.9139
3550 0.913777
3555 0.913654
3560 0.913532
3565 0.91341
3570 0.913288
3575 0.913166
3580 0.913044
3585 0.912923
3590 0.912802
3595 0.912681
3600 0.912561
3605 0.91244
3610 0.91232
3615 0.912201
3620 0.912081
3625 0.911962
3630 0.911843
3635 0.911725
3640 0.911606
3645 0.911488
3650 0.91137
3655 0.911253
3660 0.911135
3665 0.911018
3670 0.910901
3675 0.910784
3680 0.910668
3685 0.910551
3690 0.910435
3695 0.910319
3700 0.910203
3705 0.910088
3710 0.909972
3715 0.909857
3720 0.909742
3725 0.909627
3730 0.909513
3735 0.909398
3740 0.909284
3745 0.909169
3750 0.909055
3755 0.908941
3760 0.908828
3765 0.908714
3770 0.908601
3775 0.908487
3780 0.908374
3785 0.908261
3790 0.908149
3795 0.908036
3800 0.907924
3805 0.907811
3810 0.907699
3815 0.907587
3820 0.907475
3825 0.907364
3830 0.907252
3835 0.907141
3840 0.90703
3845 0.906919
3850 0.906808
3855 0.906697
3860 0.906587
3865 0.906477
3870 0.906366
3875 0.906256
3880 0.906147
3885 0.906037
3890 0.905927
3895 0.905818
3900 0.905709
3905 0.9056
3910 0.905491
3915 0.905383
3920 0.905274
3925 0.905166
3930 0.905058
3935 0.90495
3940 0.904842
3945 0.904734
3950 0.904627
3955 0.90452
3960 0.904413
3965 0.904306
3970 0.904199
3975 0.904092
3980 0.903986
3985 0.90388
3990 0.903774
3995 0.903668
4000 0.903562
4005 0.903457
4010 0.903351
4015 0.903246
4020 0.903141
4025 0.903037
4030 0.902932
4035 0.902828
4040 0.902723
4045 0.902619
4050 0.902515
4055 0.902412
4060 0.902308
4065 0.902205
4070 0.902102
4075 0.901999
4080 0.901896
4085 0.901793
4090 0.901691
4095 0.901589
4100 0.901487
4105 0.901385
4110 0.901284
4115 0.901183
4120 0.901082
4125 0.900981
4130 0.900881
4135 0.900781
4140 0.900681
4145 0.900582
4150 0.900483
4155 0.900384
4160 0.900286
4165 0.900187
4170 0.900089
4175 0.899991
4180 0.899894
4185 0.899797
4190 0.8997
4195 0.899603
4200 0.899506
4205 0.89941
4210 0.899313
4215 0.899217
4220 0.899121
4225 0.899025
4230 0.89893
4235 0.898834
4240 0.898739
4245 0.898644
4250 0.898549
4255 0.898454
4260 0.89836
4265 0.898265
4270 0.898171
4275 0.898077
4280 0.897983
4285 0.897889
4290 0.897795
4295 0.897701
4300 0.897608
4305 0.897514
4310 0.897421
4315 0.897328
4320 0.897235
4325 0.897142
4330 0.89705
4335 0.896957
4340 0.896865
4345 0.896773
4350 0.89668
4355 0.896588
4360 0.896497
4365 0.896405
4370 0.896313
4375 0.896222
4380 0.896131
4385 0.896039
4390 0.895948
4395 0.895858
4400 0.895767
4405 0.895676
4410 0.895586
4415 0.895495
4420 0.895405
4425 0.895315
4430 0.895225
4435 0.895136
4440 0.895046
4445 0.894956
4450 0.894867
4455 0.894778
4460 0.894689
4465 0.8946
4470 0.894511
4475 0.894423
4480 0.894334
4485 0.894246
4490 0.894158
4495 0.89407
4500 0.893982
4505 0.893894
4510 0.893806
4515 0.893719
4520 0.893631
4525 0.893544
4530 0.893457
4535 0.89337
4540 0.893283
4545 0.893197
4550 0.89311
4555 0.893024
4560 0.892938
4565 0.892852
4570 0.892766
4575 0.89268
4580 0.892595
4585 0.892509
4590 0.892424
4595 0.892339
4600 0.892254
4605 0.892169
4610 0.892084
4615 0.892
4620 0.891915
4625 0.891831
4630 0.891747
4635 0.891663
4640 0.891579
4645 0.891496
4650 0.891412
4655 0.891329
4660 0.891245
4665 0.891162
4670 0.891079
4675 0.890997
4680 0.890914
4685 0.890832
4690 0.890749
4695 0.890667
4700 0.890585
4705 0.890503
4710 0.890422
4715 0.89034
4720 0.890259
4725 0.890177
4730 0.890096
4735 0.890015
4740 0.889934
4745 0.889854
4750 0.889773
4755 0.889693
4760 0.889613
4765 0.889533
4770 0.889453
4775 0.889373
4780 0.889293
4785 0.889214
4790 0.889134
4795 0.889055
4800 0.888976
4805 0.888897
4810 0.888819
4815 0.88874
4820 0.888662
4825 0.888583
4830 0.888505
4835 0.888427
4840 0.888349
4845 0.888272
4850 0.888194
4855 0.888117
4860 0.88804
4865 0.887963
4870 0.887886
4875 0.887809
4880 0.887732
4885 0.887656
4890 0.887579
4895 0.887503
4900 0.887427
4905 0.887351
4910 0.887275
4915 0.8872
4920 0.887124
4925 0.887049
4930 0.886974
4935 0.886899
4940 0.886824
4945 0.886749
4950 0.886675
4955 0.8866
4960 0.886526
4965 0.886452
4970 0.886378
4975 0.886305
4980 0.886231
4985 0.886158
4990 0.886085
4995 0.886013
5000 0.88594
5005 0.885868
5010 0.885796
5015 0.885725
5020 0.885654
5025 0.885583
5030 0.885512
5035 0.885442
5040 0.885371
5045 0.885301
5050 0.885232
5055 0.885162
5060 0.885093
5065 0.885024
5070 0.884955
5075 0.884886
5080 0.884817
5085 0.884749
5090 0.884681
5095 0.884613
5100 0.884545
5105 0.884477
5110 0.884409
5115 0.884342
5120 0.884274
5125 0.884207
5130 0.88414
5135 0.884073
5140 0.884006
5145 0.883939
5150 0.883872
5155 0.883805
5160 0.883739
5165 0.883673
5170 0.883606
5175 0.88354
5180 0.883474
5185 0.883408
5190 0.883342
5195 0.883276
5200 0.883211
5205 0.883145
5210 0.88308
5215 0.883014
5220 0.882949
5225 0.882884
5230 0.882819
5235 0.882754
5240 0.882689
5245 0.882625
5250 0.88256
5255 0.882495
5260 0.882431
5265 0.882367
5270 0.882302
5275 0.882238
5280 0.882174
5285 0.88211
5290 0.882046
5295 0.881983
5300 0.881919
5305 0.881856
5310 0.881792
5315 0.881729
5320 0.881666
5325 0.881602
5330 0.881539
5335 0.881476
5340 0.881414
5345 0.881351
5350 0.881288
5355 0.881226
5360 0.881163
5365 0.881101
5370 0.881038
5375 0.880976
5380 0.880914
5385 0.880852
5390 0.88079
5395 0.880729
5400 0.880667
5405 0.880605
5410 0.880544
5415 0.880483
5420 0.880421
5425 0.88036
5430 0.880299
5435 0.880238
5440 0.880177
5445 0.880117
5450 0.880056
5455 0.879995
5460 0.879935
5465 0.879874
5470 0.879814
5475 0.879754
5480 0.879694
5485 0.879634
5490 0.879574
5495 0.879514
5500 0.879455
5505 0.879395
5510 0.879336
5515 0.879276
5520 0.879217
5525 0.879158
5530 0.879099
5535 0.87904
5540 0.878981
5545 0.878922
5550 0.878864
5555 0.878805
5560 0.878747
5565 0.878688
5570 0.87863
5575 0.878572
5580 0.878514
5585 0.878456
5590 0.878398
5595 0.87834
5600 0.878283
5605 0.878225
5610 0.878168
5615 0.878111
5620 0.878053
5625 0.877996
5630 0.877939
5635 0.877882
5640 0.877826
5645 0.877769
5650 0.877712
5655 0.877656
5660 0.877599
5665 0.877543
5670 0.877487
5675 0.877431
5680 0.877375
5685 0.877319
5690 0.877263
5695 0.877208
5700 0.877152
5705 0.877097
5710 0.877041
5715 0.876986
5720 0.876931
5725 0.876876
5730 0.876821
5735 0.876766
5740 0.876711
5745 0.876657
5750 0.876602
5755 0.876548
5760 0.876494
5765 0.876439
5770 0.876385
5775 0.876331
5780 0.876277
5785 0.876224
5790 0.87617
5795 0.876116
5800 0.876063
5805 0.87601
5810 0.875956
5815 0.875903
5820 0.87585
5825 0.875797
5830 0.875744
5835 0.875692
5840 0.875639
5845 0.875587
5850 0.875534
5855 0.875482
5860 0.87543
5865 0.875377
5870 0.875325
5875 0.875274
5880 0.875222
5885 0.87517
5890 0.875119
5895 0.875067
5900 0.875016
5905 0.874964
5910 0.874913
5915 0.874862
5920 0.874811
5925 0.87476
5930 0.87471
5935 0.874659
5940 0.874608
5945 0.874558
5950 0.874508
5955 0.874457
5960 0.874407
5965 0.874357
5970 0.874307
5975 0.874257
5980 0.874208
5985 0.874158
5990 0.874109
5995 0.874059
6000 0.87401
6005 0.873961
6010 0.873912
6015 0.873863
6020 0.873814
6025 0.873765
6030 0.873716
6035 0.873668
6040 0.873619
6045 0.873571
6050 0.873523
6055 0.873474
6060 0.873426
6065 0.873378
6070 0.87333
6075 0.873283
6080 0.873235
6085 0.873187
6090 0.87314
6095 0.873093
6100 0.873045
6105 0.872998
6110 0.872951
6115 0.872904
6120 0.872857
6125 0.872811
6130 0.872764
6135 0.872717
6140 0.872671
6145 0.872625
6150 0.872578
6155 0.872532
6160 0.872486
6165 0.87244
6170 0.872394
6175 0.872349
6180 0.872303
6185 0.872257
6190 0.872212
6195 0.872167
6200 0.872121
6205 0.872076
6210 0.872031
6215 0.871986
6220 0.871941
6225 0.871896
6230 0.871852
6235 0.871807
6240 0.871763
6245 0.871718
6250 0.871674
6255 0.87163
6260 0.871586
6265 0.871542
6270 0.871498
6275 0.871454
6280 0.871411
6285 0.871367
6290 0.871324
6295 0.87128
6300 0.871237
6305 0.871194
6310 0.871151
6315 0.871108
6320 0.871065
6325 0.871022
6330 0.870979
6335 0.870937
6340 0.870894
6345 0.870852
6350 0.870809
6355 0.870767
6360 0.870725
6365 0.870683
6370 0.870641
6375 0.870599
6380 0.870557
6385 0.870516
6390 0.870474
6395 0.870433
6400 0.870391
6405 0.87035
6410 0.870309
6415 0.870268
6420 0.870227
6425 0.870186
6430 0.870146
6435 0.870106
6440 0.870066
6445 0.870026
6450 0.869986
6455 0.869947
6460 0.869908
6465 0.869869
6470 0.86983
6475 0.869791
6480 0.869753
6485 0.869715
6490 0.869677
6495 0.869639
6500 0.869601
6505 0.869564
6510 0.869527
6515 0.869489
6520 0.869452
6525 0.869415
6530 0.869378
6535 0.869342
6540 0.869305
6545 0.869268
6550 0.869232
6555 0.869195
6560 0.869159
6565 0.869123
6570 0.869087
6575 0.869051
6580 0.869015
6585 0.868979
6590 0.868943
6595 0.868907
6600 0.868872
6605 0.868836
6610 0.8688
6615 0.868765
6620 0.86873
6625 0.868694
6630 0.868659
6635 0.868624
6640 0.868589
6645 0.868554
6650 0.868519
6655 0.868484
6660 0.868449
6665 0.868414
6670 0.868379
6675 0.868345
6680 0.86831
6685 0.868275
6690 0.868241
6695 0.868207
6700 0.868172
6705 0.868138
6710 0.868104
6715 0.86807
6720 0.868036
6725 0.868002
6730 0.867968
6735 0.867934
6740 0.8679
6745 0.867866
6750 0.867832
6755 0.867799
6760 0.867765
6765 0.867732
6770 0.867698
6775 0.867665
6780 0.867631
6785 0.867598
6790 0.867565
6795 0.867532
6800 0.867499
6805 0.867466
6810 0.867433
6815 0.8674
6820 0.867367
6825 0.867334
6830 0.867301
6835 0.867269
6840 0.867236
6845 0.867204
6850 0.867171
6855 0.867139
6860 0.867106
6865 0.867074
6870 0.867042
6875 0.86701
6880 0.866978
6885 0.866945
6890 0.866913
6895 0.866882
6900 0.86685
6905 0.866818
6910 0.866786
6915 0.866754
6920 0.866723
6925 0.866691
6930 0.86666
6935 0.866628
6940 0.866597
6945 0.866565
6950 0.866534
6955 0.866503
6960 0.866472
6965 0.866441
6970 0.86641
6975 0.866379
6980 0.866348
6985 0.866317
6990 0.866286
6995 0.866255
7000 0.866225
7005 0.866194
7010 0.866163
7015 0.866133
7020 0.866102
7025 0.866072
7030 0.866042
7035 0.866011
7040 0.865981
7045 0.865951
7050 0.865921
7055 0.865891
7060 0.865861
7065 0.865831
7070 0.865801
7075 0.865771
7080 0.865742
7085 0.865712
7090 0.865682
7095 0.865653
7100 0.865623
7105 0.865594
7110 0.865565
7115 0.865535
7120 0.865506
7125 0.865477
7130 0.865448
7135 0.865419
7140 0.86539
7145 0.865361
7150 0.865332
7155 0.865303
7160 0.865274
7165 0.865246
7170 0.865217
7175 0.865188
7180 0.86516
7185 0.865131
7190 0.865103
7195 0.865075
7200 0.865046
7205 0.865018
7210 0.86499
7215 0.864962
7220 0.864934
7225 0.864906
7230 0.864878
7235 0.86485
7240 0.864823
7245 0.864795
7250 0.864767
7255 0.86474
7260 0.864712
7265 0.864685
7270 0.864657
7275 0.86463
7280 0.864602
7285 0.864575
7290 0.864548
7295 0.864521
7300 0.864494
7305 0.864467
7310 0.86444
7315 0.864413
7320 0.864386
7325 0.86436
7330 0.864333
7335 0.864306
7340 0.86428
7345 0.864253
7350 0.864227
7355 0.864201
7360 0.864174
7365 0.864148
7370 0.864122
7375 0.864096
7380 0.86407
7385 0.864044
7390 0.864018
7395 0.863992
7400 0.863966
7405 0.86394
7410 0.863915
7415 0.863889
7420 0.863864
7425 0.863838
7430 0.863813
7435 0.863787
7440 0.863762
7445 0.863737
7450 0.863712
7455 0.863686
7460 0.863661
7465 0.863636
7470 0.863611
7475 0.863587
7480 0.863562
7485 0.863537
7490 0.863512
7495 0.863488
7500 0.863463
7505 0.863439
7510 0.863414
7515 0.86339
7520 0.863366
7525 0.863341
7530 0.863317
7535 0.863293
7540 0.863269
7545 0.863245
7550 0.863221
7555 0.863197
7560 0.863173
7565 0.86315
7570 0.863126
7575 0.863102
7580 0.863079
7585 0.863055
7590 0.863032
7595 0.863008
7600 0.862985
7605 0.862962
7610 0.862939
7615 0.862916
7620 0.862893
7625 0.86287
7630 0.862847
7635 0.862824
7640 0.862801
7645 0.862778
7650 0.862755
7655 0.862733
7660 0.86271
7665 0.862688
7670 0.862665
7675 0.862643
7680 0.862621
7685 0.862598
7690 0.862576
7695 0.862554
7700 0.862532
7705 0.86251
7710 0.862488
7715 0.862466
7720 0.862444
7725 0.862423
7730 0.862401
7735 0.862379
7740 0.862358
7745 0.862336
7750 0.862315
7755 0.862293
7760 0.862272
7765 0.862251
7770 0.86223
7775 0.862209
7780 0.862187
7785 0.862166
7790 0.862145
7795 0.862125
7800 0.862104
7805 0.862083
7810 0.862062
7815 0.862042
7820 0.862021
7825 0.862001
7830 0.86198
7835 0.86196
7840 0.861939
7845 0.861919
7850 0.861899
7855 0.861879
7860 0.861859
7865 0.861839
7870 0.861819
7875 0.861799
7880 0.861779
7885 0.861759
7890 0.861739
7895 0.86172
7900 0.8617
7905 0.861681
7910 0.861661
7915 0.861642
7920 0.861622
7925 0.861603
7930 0.861584
7935 0.861565
7940 0.861546
7945 0.861526
7950 0.861507
7955 0.861489
7960 0.86147
7965 0.861451
7970 0.861432
7975 0.861413
7980 0.861395
7985 0.861376
7990 0.861358
7995 0.861339
8000 0.861321
8005 0.861303
8010 0.861284
8015 0.861266
8020 0.861248
8025 0.86123
8030 0.861212
8035 0.861194
8040 0.861176
8045 0.861158
8050 0.86114
8055 0.861123
8060 0.861105
8065 0.861087
8070 0.86107
8075 0.861052
8080 0.861035
8085 0.861017
8090 0.861
8095 0.860983
8100 0.860966
8105 0.860949
8110 0.860931
8115 0.860914
8120 0.860897
8125 0.860881
8130 0.860864
8135 0.860847
8140 0.86083
8145 0.860814
8150 0.860797
8155 0.86078
8160 0.860764
8165 0.860747
8170 0.860731
8175 0.860715
8180 0.860699
8185 0.860682
8190 0.860666
8195 0.86065
8200 0.860634
8205 0.860618
8210 0.860602
8215 0.860586
8220 0.860571
8225 0.860555
8230 0.860539
8235 0.860524
8240 0.860508
8245 0.860493
8250 0.860477
8255 0.860462
8260 0.860446
8265 0.860431
8270 0.860416
8275 0.860401
8280 0.860386
8285 0.860371
8290 0.860356
8295 0.860341
8300 0.860326
8305 0.860311
8310 0.860296
8315 0.860282
8320 0.860267
8325 0.860252
8330 0.860238
8335 0.860223
8340 0.860209
8345 0.860194
8350 0.86018
8355 0.860166
8360 0.860152
8365 0.860138
8370 0.860124
8375 0.86011
8380 0.860096
8385 0.860082
8390 0.860068
8395 0.860054
8400 0.86004
8405 0.860027
8410 0.860013
8415 0.859999
8420 0.859986
8425 0.859972
8430 0.859959
8435 0.859946
8440 0.859932
8445 0.859919
8450 0.859906
8455 0.859893
8460 0.85988
8465 0.859867
8470 0.859854
8475 0.859841
8480 0.859828
8485 0.859815
8490 0.859802
8495 0.85979
8500 0.859777
8505 0.859764
8510 0.859752
8515 0.859739
8520 0.859727
8525 0.859715
8530 0.859702
8535 0.85969
8540 0.859678
8545 0.859666
8550 0.859654
8555 0.859642
8560 0.85963
8565 0.859618
8570 0.859606
8575 0.859594
8580 0.859583
8585 0.859572
8590 0.85956
8595 0.859549
8600 0.859538
8605 0.859528
8610 0.859517
8615 0.859506
8620 0.859496
8625 0.859485
8630 0.859475
8635 0.859465
8640 0.859455
8645 0.859445
8650 0.859435
8655 0.859425
8660 0.859416
8665 0.859406
8670 0.859396
8675 0.859387
8680 0.859377
8685 0.859368
8690 0.859359
8695 0.859349
8700 0.85934
8705 0.859331
8710 0.859322
8715 0.859313
8720 0.859304
8725 0.859295
8730 0.859286
8735 0.859277
8740 0.859268
8745 0.85926
8750 0.859251
8755 0.859242
8760 0.859234
8765 0.859225
8770 0.859217
8775 0.859208
8780 0.8592
8785 0.859192
8790 0.859183
8795 0.859175
8800 0.859167
8805 0.859159
8810 0.859151
8815 0.859143
8820 0.859135
8825 0.859127
8830 0.859119
8835 0.859111
8840 0.859103
8845 0.859095
8850 0.859087
8855 0.85908
8860 0.859072
8865 0.859064
8870 0.859057
8875 0.859049
8880 0.859042
8885 0.859034
8890 0.859027
8895 0.859019
8900 0.859012
8905 0.859005
8910 0.858997
8915 0.85899
8920 0.858983
8925 0.858976
8930 0.858969
8935 0.858962
8940 0.858955
8945 0.858948
8950 0.858941
8955 0.858934
8960 0.858927
8965 0.85892
8970 0.858913
8975 0.858907
8980 0.8589
8985 0.858893
8990 0.858887
8995 0.85888
9000 0.858874
9005 0.858867
9010 0.858861
9015 0.858854
9020 0.858848
9025 0.858841
9030 0.858835
9035 0.858829
9040 0.858822
9045 0.858816
9050 0.85881
9055 0.858804
9060 0.858798
9065 0.858792
9070 0.858786
9075 0.85878
9080 0.858774
9085 0.858768
9090 0.858762
9095 0.858756
9100 0.85875
9105 0.858744
9110 0.858739
9115 0.858733
9120 0.858727
9125 0.858722
9130 0.858716
9135 0.85871
9140 0.858705
9145 0.858699
9150 0.858694
9155 0.858689
9160 0.858683
9165 0.858678
9170 0.858672
9175 0.858667
9180 0.858662
9185 0.858657
9190 0.858651
9195 0.858646
9200 0.858641
9205 0.858636
9210 0.858631
9215 0.858626
9220 0.858621
9225 0.858616
9230 0.858611
9235 0.858606
9240 0.858601
9245 0.858597
9250 0.858592
9255 0.858587
9260 0.858582
9265 0.858578
9270 0.858573
9275 0.858569
9280 0.858564
9285 0.858559
9290 0.858555
9295 0.85855
9300 0.858546
9305 0.858542
9310 0.858537
9315 0.858533
9320 0.858529
9325 0.858524
9330 0.85852
9335 0.858516
9340 0.858512
9345 0.858508
9350 0.858503
9355 0.858499
9360 0.858495
9365 0.858491
9370 0.858487
9375 0.858483
9380 0.858479
9385 0.858476
9390 0.858472
9395 0.858468
9400 0.858464
9405 0.85846
9410 0.858457
9415 0.858453
9420 0.858449
9425 0.858446
9430 0.858442
9435 0.858439
9440 0.858435
9445 0.858432
9450 0.858428
9455 0.858425
9460 0.858421
9465 0.858418
9470 0.858415
9475 0.858411
9480 0.858408
9485 0.858405
9490 0.858402
9495 0.858399
9500 0.858396
9505 0.858392
9510 0.858389
9515 0.858386
9520 0.858383
9525 0.85838
9530 0.858378
9535 0.858375
9540 0.858372
9545 0.858369
9550 0.858366
9555 0.858363
9560 0.858361
9565 0.858358
9570 0.858355
9575 0.858353
9580 0.85835
9585 0.858348
9590 0.858345
9595 0.858342
9600 0.85834
9605 0.858338
9610 0.858335
9615 0.858333
9620 0.85833
9625 0.858328
9630 0.858326
9635 0.858324
9640 0.858321
9645 0.858319
9650 0.858317
9655 0.858315
9660 0.858313
9665 0.858311
9670 0.858309
9675 0.858307
9680 0.858305
9685 0.858303
9690 0.858301
9695 0.858299
9700 0.858297
9705 0.858296
9710 0.858294
9715 0.858292
9720 0.85829
9725 0.858289
9730 0.858287
9735 0.858286
9740 0.858284
9745 0.858283
9750 0.858281
9755 0.85828
9760 0.858278
9765 0.858277
9770 0.858275
9775 0.858274
9780 0.858273
9785 0.858271
9790 0.85827
9795 0.858269
9800 0.858268
9805 0.858267
9810 0.858266
9815 0.858265
9820 0.858264
9825 0.858263
9830 0.858262
9835 0.858261
9840 0.85826
9845 0.858259
9850 0.858258
9855 0.858257
9860 0.858256
9865 0.858256
9870 0.858255
9875 0.858254
9880 0.858254
9885 0.858253
9890 0.858252
9895 0.858252
9900 0.858251
9905 0.858251
9910 0.85825
9915 0.85825
9920 0.858249
9925 0.858249
9930 0.858249
9935 0.858249
9940 0.858248
9945 0.858248
9950 0.858248
9955 0.858248
9960 0.858248
9965 0.858247
9970 0.858247
9975 0.858247
9980 0.858247
9985 0.858247
9990 0.858247
9995 0.858248
10000 0.858248
10005 0.858248
10010 0.858248
10015 0.858248
10020 0.858248
10025 0.858249
10030 0.858249
10035 0.858249
10040 0.85825
10045 0.85825
10050 0.858251
10055 0.858251
10060 0.858252
10065 0.858252
10070 0.858253
10075 0.858253
10080 0.858254
10085 0.858255
10090 0.858255
10095 0.858256
10100 0.858257
10105 0.858258
10110 0.858259
10115 0.85826
10120 0.85826
10125 0.858261
10130 0.858262
10135 0.858263
10140 0.858264
10145 0.858265
10150 0.858267
10155 0.858268
10160 0.858269
10165 0.85827
10170 0.858271
10175 0.858273
10180 0.858274
10185 0.858275
10190 0.858276
10195 0.858278
10200 0.858279
10205 0.858281
10210 0.858282
10215 0.858284
10220 0.858285
10225 0.858287
10230 0.858288
10235 0.85829
10240 0.858292
10245 0.858294
10250 0.858295
10255 0.858297
10260 0.858299
10265 0.858301
10270 0.858303
10275 0.858304
10280 0.858306
10285 0.858308
10290 0.85831
10295 0.858312
10300 0.858314
10305 0.858317
10310 0.858319
10315 0.858321
10320 0.858323
10325 0.858325
10330 0.858327
10335 0.85833
10340 0.858332
10345 0.858334
10350 0.858337
10355 0.858339
10360 0.858342
10365 0.858344
10370 0.858347
10375 0.858349
10380 0.858352
10385 0.858354
10390 0.858357
10395 0.85836
10400 0.858362
10405 0.858365
10410 0.858368
10415 0.858371
10420 0.858374
10425 0.858376
10430 0.858379
10435 0.858382
10440 0.858385
10445 0.858388
10450 0.858391
10455 0.858394
10460 0.858397
10465 0.8584
10470 0.858404
10475 0.858407
10480 0.85841
10485 0.858413
10490 0.858417
10495 0.85842
10500 0.858423
10505 0.858427
10510 0.85843
10515 0.858433
10520 0.858437
10525 0.85844
10530 0.858444
10535 0.858447
10540 0.858451
10545 0.858455
10550 0.858458
10555 0.858462
10560 0.858466
10565 0.85847
10570 0.858473
10575 0.858477
10580 0.858481
10585 0.858485
10590 0.858489
10595 0.858493
10600 0.858497
10605 0.858501
10610 0.858505
10615 0.858509
10620 0.858513
10625 0.858517
10630 0.858521
10635 0.858525
10640 0.85853
10645 0.858534
10650 0.858538
10655 0.858543
10660 0.858547
10665 0.858551
10670 0.858556
10675 0.85856
10680 0.858565
10685 0.858569
10690 0.858574
10695 0.858578
10700 0.858583
10705 0.858588
10710 0.858592
10715 0.858597
10720 0.858602
10725 0.858606
10730 0.858611
10735 0.858616
10740 0.858621
10745 0.858626
10750 0.858631
10755 0.858636
10760 0.858641
10765 0.858646
10770 0.858651
10775 0.858656
10780 0.858661
10785 0.858666
10790 0.858671
10795 0.858676
10800 0.858682
10805 0.858687
10810 0.858692
10815 0.858697
10820 0.858703
10825 0.858708
10830 0.858714
10835 0.858719
10840 0.858725
10845 0.85873
10850 0.858736
10855 0.858741
10860 0.858747
10865 0.858752
10870 0.858758
10875 0.858764
10880 0.858769
10885 0.858775
10890 0.858781
10895 0.858787
10900 0.858793
10905 0.858799