5 0.864055
10 0.863251
15 0.862829
20 0.862706
25 0.862693
30 0.862693
35 0.862674
40 0.862636
45 0.862586
50 0.862528
55 0.862467
60 0.862406
65 0.862344
70 0.862281
75 0.862219
80 0.862158
85 0.862097
90 0.862037
95 0.861977
100 0.861917
105 0.861857
110 0.861796
115 0.861735
120 0.861673
125 0.861611
130 0.861549
135 0.861487
140 0.861425
145 0.861363
150 0.8613
155 0.861238
160 0.861175
165 0.861113
170 0.86105
175 0.860987
180 0.860925
185 0.860862
190 0.860799
195 0.860736
200 0.860673
205 0.86061
210 0.860546
215 0.860483
220 0.860419
225 0.860355
230 0.860291
235 0.860227
240 0.860163
245 0.860098
250 0.860033
255 0.859968
260 0.859903
265 0.859838
270 0.859772
275 0.859706
280 0.85964
285 0.859573
290 0.859507
295 0.85944
300 0.859372
305 0.859305
310 0.859237
315 0.859168
320 0.8591
325 0.859031
330 0.858961
335 0.858891
340 0.858821
345 0.858751
350 0.85868
355 0.858609
360 0.858537
365 0.858465
370 0.858393
375 0.85832
380 0.858246
385 0.858173
390 0.858098
395 0.858024
400 0.857948
405 0.857873
410 0.857797
415 0.85772
420 0.857643
425 0.857565
430 0.857487
435 0.857409
440 0.85733
445 0.85725
450 0.85717
455 0.857089
460 0.857008
465 0.856926
470 0.856843
475 0.85676
480 0.856677
485 0.856592
490 0.856508
495 0.856422
500 0.856336
505 0.856249
510 0.856162
515 0.856074
520 0.855985
525 0.855896
530 0.855806
535 0.855716
540 0.855625
545 0.855533
550 0.85544
555 0.855347
560 0.855253
565 0.855158
570 0.855062
575 0.854966
580 0.854869
585 0.854772
590 0.854673
595 0.854574
600 0.854474
605 0.854373
610 0.854272
615 0.854169
620 0.854066
625 0.853962
630 0.853858
635 0.853752
640 0.853646
645 0.853539
650 0.853431
655 0.853322
660 0.853212
665 0.853102
670 0.85299
675 0.852878
680 0.852765
685 0.852651
690 0.852536
695 0.85242
700 0.852303
705 0.852186
710 0.852067
715 0.851948
720 0.851828
725 0.851707
730 0.851584
735 0.851461
740 0.851338
745 0.851213
750 0.851087
755 0.85096
760 0.850833
765 0.850704
770 0.850575
775 0.850444
780 0.850313
785 0.85018
790 0.850047
795 0.849913
800 0.849778
805 0.849642
810 0.849506
815 0.849368
820 0.84923
825 0.849091
830 0.848951
835 0.84881
840 0.848669
845 0.848526
850 0.848383
855 0.848239
860 0.848094
865 0.847949
870 0.847802
875 0.847655
880 0.847508
885 0.847359
890 0.84721
895 0.847061
900 0.84691
905 0.84676
910 0.846608
915 0.846456
920 0.846304
925 0.84615
930 0.845997
935 0.845843
940 0.845688
945 0.845533
950 0.845378
955 0.845222
960 0.845067
965 0.84491
970 0.844754
975 0.844597
980 0.844441
985 0.844284
990 0.844127
995 0.84397
1000 0.843812
1005 0.843655
1010 0.843498
1015 0.843341
1020 0.843184
1025 0.843027
1030 0.84287
1035 0.842714
1040 0.842557
1045 0.842401
1050 0.842245
1055 0.842089
1060 0.841934
1065 0.841778
1070 0.841624
1075 0.841469
1080 0.841315
1085 0.841161
1090 0.841008
1095 0.840855
1100 0.840703
1105 0.840551
1110 0.8404
1115 0.840249
1120 0.840099
1125 0.839949
1130 0.8398
1135 0.839651
1140 0.839503
1145 0.839356
1150 0.839209
1155 0.839063
1160 0.838917
1165 0.838772
1170 0.838627
1175 0.838483
1180 0.83834
1185 0.838197
1190 0.838054
1195 0.83791
1200 0.837767
1205 0.837624
1210 0.837481
1215 0.83734
1220 0.8372
1225 0.837061
1230 0.836924
1235 0.836787
1240 0.836653
1245 0.836519
1250 0.836388
1255 0.836257
1260 0.836128
1265 0.836001
1270 0.835875
1275 0.835751
1280 0.835628
1285 0.835506
1290 0.835386
1295 0.835267
1300 0.835149
1305 0.835033
1310 0.834918
1315 0.834804
1320 0.834691
1325 0.834579
1330 0.834469
1335 0.834359
1340 0.83425
1345 0.834143
1350 0.834036
1355 0.83393
1360 0.833825
1365 0.83372
1370 0.833616
1375 0.833513
1380 0.833411
1385 0.833309
1390 0.833207
1395 0.833106
1400 0.833005
1405 0.832905
1410 0.832805
1415 0.832706
1420 0.832606
1425 0.832507
1430 0.832408
1435 0.83231
1440 0.832211
1445 0.832112
1450 0.832014
1455 0.831916
1460 0.831817
1465 0.831719
1470 0.831621
1475 0.831522
1480 0.831424
1485 0.831325
1490 0.831226
1495 0.831127
1500 0.831028
1505 0.830929
1510 0.830831
1515 0.830732
1520 0.830634
1525 0.830536
1530 0.830438
1535 0.83034
1540 0.830242
1545 0.830143
1550 0.830044
1555 0.829944
1560 0.829844
1565 0.829744
1570 0.829643
1575 0.829542
1580 0.82944
1585 0.829338
1590 0.829235
1595 0.829131
1600 0.829027
1605 0.828922
1610 0.828817
1615 0.82871
1620 0.828604
1625 0.828496
1630 0.828388
1635 0.82828
1640 0.82817
1645 0.82806
1650 0.827949
1655 0.827838
1660 0.827725
1665 0.827612
1670 0.827499
1675 0.827384
1680 0.827269
1685 0.827153
1690 0.827037
1695 0.826919
1700 0.826801
1705 0.826682
1710 0.826562
1715 0.826442
1720 0.826321
1725 0.826199
1730 0.826076
1735 0.825953
1740 0.825828
1745 0.825703
1750 0.825577
1755 0.825451
1760 0.825323
1765 0.825195
1770 0.825066
1775 0.824937
1780 0.824806
1785 0.824675
1790 0.824543
1795 0.82441
1800 0.824276
1805 0.824142
1810 0.824007
1815 0.823871
1820 0.823734
1825 0.823597
1830 0.823458
1835 0.823319
1840 0.823179
1845 0.823039
1850 0.822897
1855 0.822755
1860 0.822612
1865 0.822469
1870 0.822324
1875 0.822179
1880 0.822033
1885 0.821886
1890 0.821739
1895 0.821591
1900 0.821442
1905 0.821292
1910 0.821141
1915 0.82099
1920 0.820838
1925 0.820685
1930 0.820532
1935 0.820378
1940 0.820223
1945 0.820067
1950 0.819911
1955 0.819754
1960 0.819596
1965 0.819437
1970 0.819278
1975 0.819118
1980 0.818957
1985 0.818796
1990 0.818633
1995 0.818471
2000 0.818307
2005 0.818143
2010 0.817978
2015 0.817812
2020 0.817646
2025 0.817479
2030 0.817311
2035 0.817143
2040 0.816974
2045 0.816804
2050 0.816634
2055 0.816462
2060 0.816291
2065 0.816118
2070 0.815945
2075 0.815772
2080 0.815597
2085 0.815422
2090 0.815246
2095 0.815069
2100 0.814891
2105 0.814712
2110 0.814531
2115 0.81435
2120 0.814168
2125 0.813984
2130 0.8138
2135 0.813615
2140 0.813428
2145 0.813241
2150 0.813052
2155 0.812863
2160 0.812673
2165 0.812482
2170 0.81229
2175 0.812097
2180 0.811903
2185 0.811708
2190 0.811513
2195 0.811316
2200 0.811119
2205 0.810921
2210 0.810723
2215 0.810523
2220 0.810323
2225 0.810122
2230 0.809921
2235 0.809718
2240 0.809515
2245 0.809311
2250 0.809107
2255 0.808902
2260 0.808696
2265 0.808489
2270 0.808282
2275 0.808074
2280 0.807866
2285 0.807657
2290 0.807447
2295 0.807237
2300 0.807026
2305 0.806814
2310 0.806602
2315 0.806389
2320 0.806176
2325 0.805962
2330 0.805747
2335 0.805532
2340 0.805316
2345 0.8051
2350 0.804883
2355 0.804666
2360 0.804448
2365 0.804229
2370 0.80401
2375 0.803791
2380 0.803571
2385 0.80335
2390 0.803129
2395 0.802908
2400 0.802685
2405 0.802463
2410 0.80224
2415 0.802016
2420 0.801792
2425 0.801567
2430 0.801342
2435 0.801117
2440 0.800891
2445 0.800664
2450 0.800437
2455 0.80021
2460 0.799982
2465 0.799754
2470 0.799525
2475 0.799296
2480 0.799066
2485 0.798836
2490 0.798605
2495 0.798374
2500 0.798143
2505 0.797911
2510 0.797679
2515 0.797446
2520 0.797213
2525 0.79698
2530 0.796746
2535 0.796511
2540 0.796277
2545 0.796042
2550 0.795806
2555 0.795569
2560 0.795329
2565 0.795088
2570 0.794845
2575 0.794601
2580 0.794355
2585 0.794108
2590 0.793859
2595 0.79361
2600 0.793359
2605 0.793107
2610 0.792855
2615 0.792601
2620 0.792347
2625 0.792092
2630 0.791837
2635 0.79158
2640 0.791324
2645 0.791066
2650 0.790809
2655 0.790551
2660 0.790292
2665 0.790034
2670 0.789775
2675 0.789515
2680 0.789256
2685 0.788996
2690 0.788736
2695 0.788476
2700 0.788216
2705 0.787955
2710 0.787695
2715 0.787434
2720 0.787174
2725 0.786913
2730 0.786652
2735 0.786392
2740 0.786131
2745 0.78587
2750 0.785609
2755 0.785349
2760 0.785088
2765 0.784827
2770 0.784567
2775 0.784306
2780 0.784046
2785 0.783785
2790 0.783525
2795 0.783265
2800 0.783005
2805 0.782744
2810 0.782484
2815 0.782224
2820 0.781965
2825 0.781705
2830 0.781445
2835 0.781186
2840 0.780926
2845 0.780667
2850 0.780408
2855 0.780148
2860 0.779889
2865 0.779631
2870 0.779372
2875 0.779113
2880 0.778855
2885 0.778596
2890 0.778338
2895 0.77808
2900 0.777821
2905 0.777564
2910 0.777306
2915 0.777048
2920 0.77679
2925 0.776533
2930 0.776275
2935 0.776018
2940 0.775761
2945 0.775504
2950 0.775247
2955 0.77499
2960 0.774733
2965 0.774477
2970 0.77422
2975 0.773964
2980 0.773708
2985 0.773452
2990 0.773196
2995 0.77294
3000 0.772684
3005 0.772428
3010 0.772173
3015 0.771918
3020 0.771663
3025 0.771407
3030 0.771153
3035 0.770898
3040 0.770643
3045 0.770388
3050 0.770134
3055 0.76988
3060 0.769626
3065 0.769372
3070 0.769118
3075 0.768864
3080 0.76861
3085 0.768357
3090 0.768103
3095 0.76785
3100 0.767597
3105 0.767344
3110 0.767091
3115 0.766838
3120 0.766585
3125 0.766333
3130 0.76608
3135 0.765828
3140 0.765576
3145 0.765324
3150 0.765072
3155 0.764821
3160 0.764569
3165 0.764317
3170 0.764066
3175 0.763815
3180 0.763564
3185 0.763312
3190 0.763061
3195 0.762811
3200 0.76256
3205 0.762309
3210 0.762058
3215 0.761808
3220 0.761558
3225 0.761307
3230 0.761057
3235 0.760807
3240 0.760557
3245 0.760306
3250 0.760056
3255 0.759806
3260 0.759557
3265 0.759307
3270 0.759057
3275 0.758807
3280 0.758558
3285 0.758308
3290 0.758059
3295 0.757809
3300 0.75756
3305 0.75731
3310 0.757061
3315 0.756812
3320 0.756562
3325 0.756312
3330 0.756062
3335 0.755811
3340 0.75556
3345 0.755308
3350 0.755056
3355 0.754803
3360 0.754549
3365 0.754295
3370 0.75404
3375 0.753785
3380 0.75353
3385 0.753273
3390 0.753017
3395 0.75276
3400 0.752503
3405 0.752246
3410 0.751988
3415 0.75173
3420 0.751472
3425 0.751214
3430 0.750956
3435 0.750698
3440 0.750439
3445 0.750181
3450 0.749923
3455 0.749665
3460 0.749406
3465 0.749148
3470 0.74889
3475 0.748633
3480 0.748375
3485 0.748117
3490 0.74786
3495 0.747602
3500 0.747345
3505 0.747088
3510 0.746831
3515 0.746574
3520 0.746318
3525 0.746062
3530 0.745805
3535 0.745549
3540 0.745294
3545 0.745038
3550 0.744782
3555 0.744527
3560 0.744272
3565 0.744017
3570 0.743762
3575 0.743507
3580 0.743253
3585 0.742998
3590 0.742744
3595 0.74249
3600 0.742236
3605 0.741982
3610 0.741729
3615 0.741475
3620 0.741222
3625 0.740968
3630 0.740715
3635 0.740461
3640 0.740207
3645 0.739953
3650 0.739699
3655 0.739445
3660 0.739191
3665 0.738936
3670 0.738681
3675 0.738426
3680 0.738171
3685 0.737915
3690 0.737659
3695 0.737401
3700 0.737143
3705 0.736882
3710 0.736621
3715 0.736357
3720 0.736093
3725 0.735827
3730 0.735561
3735 0.735293
3740 0.735024
3745 0.734754
3750 0.734484
3755 0.734213
3760 0.733942
3765 0.73367
3770 0.733397
3775 0.733125
3780 0.732852
3785 0.732578
3790 0.732305
3795 0.732031
3800 0.731757
3805 0.731483
3810 0.731209
3815 0.730934
3820 0.730659
3825 0.730385
3830 0.73011
3835 0.729835
3840 0.72956
3845 0.729284
3850 0.729009
3855 0.728734
3860 0.728458
3865 0.728183
3870 0.727907
3875 0.727631
3880 0.727356
3885 0.72708
3890 0.726805
3895 0.726529
3900 0.726253
3905 0.725978
3910 0.725702
3915 0.725427
3920 0.725151
3925 0.724876
3930 0.724601
3935 0.724326
3940 0.724051
3945 0.723776
3950 0.723501
3955 0.723227
3960 0.722953
3965 0.722679
3970 0.722405
3975 0.722131
3980 0.721857
3985 0.721584
3990 0.721311
3995 0.721038
4000 0.720765
4005 0.720493
4010 0.720221
4015 0.719949
4020 0.719678
4025 0.719407
4030 0.719136
4035 0.718866
4040 0.718596
4045 0.718327
4050 0.718058
4055 0.717789
4060 0.717521
4065 0.717253
4070 0.716985
4075 0.716718
4080 0.716451
4085 0.716185
4090 0.715919
4095 0.715653
4100 0.715387
4105 0.715122
4110 0.714857
4115 0.714592
4120 0.714328
4125 0.714063
4130 0.713799
4135 0.713535
4140 0.713272
4145 0.713008
4150 0.712745
4155 0.712482
4160 0.712219
4165 0.711957
4170 0.711694
4175 0.711432
4180 0.71117
4185 0.710908
4190 0.710646
4195 0.710384
4200 0.710123
4205 0.709861
4210 0.7096
4215 0.709339
4220 0.709078
4225 0.708818
4230 0.708557
4235 0.708297
4240 0.708037
4245 0.707777
4250 0.707517
4255 0.707257
4260 0.706997
4265 0.706738
4270 0.706479
4275 0.706221
4280 0.705962
4285 0.705705
4290 0.705448
4295 0.705191
4300 0.704935
4305 0.70468
4310 0.704425
4315 0.704171
4320 0.703917
4325 0.703664
4330 0.703412
4335 0.70316
4340 0.702909
4345 0.702658
4350 0.702407
4355 0.702157
4360 0.701908
4365 0.701659
4370 0.70141
4375 0.701161
4380 0.700913
4385 0.700665
4390 0.700418
4395 0.70017
4400 0.699923
4405 0.699677
4410 0.69943
4415 0.699183
4420 0.698937
4425 0.698691
4430 0.698445
4435 0.6982
4440 0.697954
4445 0.697709
4450 0.697464
4455 0.697218
4460 0.696974
4465 0.696729
4470 0.696484
4475 0.69624
4480 0.695995
4485 0.695751
4490 0.695507
4495 0.695263
4500 0.69502
4505 0.694776
4510 0.694532
4515 0.694289
4520 0.694046
4525 0.693803
4530 0.69356
4535 0.693318
4540 0.693075
4545 0.692833
4550 0.69259
4555 0.692348
4560 0.692106
4565 0.691865
4570 0.691623
4575 0.691382
4580 0.691141
4585 0.6909
4590 0.690659
4595 0.690418
4600 0.690177
4605 0.689937
4610 0.689697
4615 0.689457
4620 0.689217
4625 0.688978
4630 0.688738
4635 0.688499
4640 0.68826
4645 0.688021
4650 0.687783
4655 0.687544
4660 0.687306
4665 0.687068
4670 0.686831
4675 0.686593
4680 0.686356
4685 0.686119
4690 0.685882
4695 0.685645
4700 0.685409
4705 0.685172
4710 0.684936
4715 0.684701
4720 0.684465
4725 0.68423
4730 0.683995
4735 0.68376
4740 0.683525
4745 0.683291
4750 0.683057
4755 0.682823
4760 0.682589
4765 0.682356
4770 0.682123
4775 0.68189
4780 0.681657
4785 0.681425
4790 0.681193
4795 0.680961
4800 0.68073
4805 0.680498
4810 0.680267
4815 0.680037
4820 0.679806
4825 0.679576
4830 0.679346
4835 0.679116
4840 0.678887
4845 0.678658
4850 0.678429
4855 0.6782
4860 0.677972
4865 0.677744
4870 0.677516
4875 0.677289
4880 0.677062
4885 0.676835
4890 0.676608
4895 0.676382
4900 0.676156
4905 0.67593
4910 0.675705
4915 0.67548
4920 0.675255
4925 0.675031
4930 0.674806
4935 0.674583
4940 0.674359
4945 0.674136
4950 0.673913
4955 0.67369
4960 0.673468
4965 0.673246
4970 0.673024
4975 0.672803
4980 0.672582
4985 0.672361
4990 0.672141
4995 0.671921
5000 0.671701
5005 0.671481
5010 0.671262
5015 0.671043
5020 0.670825
5025 0.670607
5030 0.670389
5035 0.670171
5040 0.669954
5045 0.669737
5050 0.669521
5055 0.669304
5060 0.669089
5065 0.668873
5070 0.668658
5075 0.668443
5080 0.668228
5085 0.668014
5090 0.6678
5095 0.667587
5100 0.667374
5105 0.667161
5110 0.666948
5115 0.666737
5120 0.666526
5125 0.666316
5130 0.666107
5135 0.6659
5140 0.665693
5145 0.665488
5150 0.665284
5155 0.665081
5160 0.66488
5165 0.66468
5170 0.664481
5175 0.664283
5180 0.664086
5185 0.66389
5190 0.663695
5195 0.6635
5200 0.663307
5205 0.663114
5210 0.662922
5215 0.662731
5220 0.66254
5225 0.662349
5230 0.662159
5235 0.66197
5240 0.661781
5245 0.661592
5250 0.661404
5255 0.661216
5260 0.661029
5265 0.660841
5270 0.660654
5275 0.660468
5280 0.660281
5285 0.660095
5290 0.659909
5295 0.659723
5300 0.659538
5305 0.659353
5310 0.659168
5315 0.658983
5320 0.658798
5325 0.658614
5330 0.65843
5335 0.658246
5340 0.658063
5345 0.657879
5350 0.657696
5355 0.657513
5360 0.65733
5365 0.657148
5370 0.656966
5375 0.656784
5380 0.656602
5385 0.65642
5390 0.656239
5395 0.656058
5400 0.655877
5405 0.655696
5410 0.655516
5415 0.655336
5420 0.655156
5425 0.654976
5430 0.654796
5435 0.654617
5440 0.654438
5445 0.654259
5450 0.654081
5455 0.653902
5460 0.653724
5465 0.653546
5470 0.653368
5475 0.653191
5480 0.653014
5485 0.652837
5490 0.65266
5495 0.652483
5500 0.652307
5505 0.652131
5510 0.651955
5515 0.651779
5520 0.651604
5525 0.651429
5530 0.651254
5535 0.651079
5540 0.650905
5545 0.650731
5550 0.650557
5555 0.650383
5560 0.650209
5565 0.650036
5570 0.649863
5575 0.64969
5580 0.649518
5585 0.649346
5590 0.649174
5595 0.649002
5600 0.64883
5605 0.648659
5610 0.648488
5615 0.648317
5620 0.648147
5625 0.647976
5630 0.647806
5635 0.647637
5640 0.647467
5645 0.647298
5650 0.647129
5655 0.64696
5660 0.646792
5665 0.646623
5670 0.646456
5675 0.646288
5680 0.64612
5685 0.645953
5690 0.645786
5695 0.64562
5700 0.645453
5705 0.645287
5710 0.645121
5715 0.644956
5720 0.64479
5725 0.644625
5730 0.644461
5735 0.644296
5740 0.644132
5745 0.643968
5750 0.643804
5755 0.643641
5760 0.643478
5765 0.643315
5770 0.643152
5775 0.64299
5780 0.642828
5785 0.642666
5790 0.642505
5795 0.642344
5800 0.642183
5805 0.642022
5810 0.641862
5815 0.641702
5820 0.641542
5825 0.641383
5830 0.641223
5835 0.641064
5840 0.640906
5845 0.640748
5850 0.640589
5855 0.640432
5860 0.640274
5865 0.640117
5870 0.63996
5875 0.639804
5880 0.639647
5885 0.639491
5890 0.639336
5895 0.63918
5900 0.639025
5905 0.63887
5910 0.638716
5915 0.638561
5920 0.638407
5925 0.638254
5930 0.6381
5935 0.637947
5940 0.637795
5945 0.637642
5950 0.63749
5955 0.637338
5960 0.637187
5965 0.637035
5970 0.636884
5975 0.636734
5980 0.636583
5985 0.636433
5990 0.636284
5995 0.636134
6000 0.635985
6005 0.635836
6010 0.635688
6015 0.635539
6020 0.635391
6025 0.635244
6030 0.635096
6035 0.634949
6040 0.634803
6045 0.634656
6050 0.63451
6055 0.634364
6060 0.634219
6065 0.634073
6070 0.633929
6075 0.633784
6080 0.63364
6085 0.633496
6090 0.633352
6095 0.633209
6100 0.633065
6105 0.632923
6110 0.63278
6115 0.632638
6120 0.632496
6125 0.632355
6130 0.632213
6135 0.632072
6140 0.631932
6145 0.631791
6150 0.631651
6155 0.631512
6160 0.631372
6165 0.631233
6170 0.631094
6175 0.630956
6180 0.630817
6185 0.630679
6190 0.630541
6195 0.630402
6200 0.630263
6205 0.630124
6210 0.629985
6215 0.629846
6220 0.629706
6225 0.629566
6230 0.629426
6235 0.629286
6240 0.629146
6245 0.629005
6250 0.628865
6255 0.628725
6260 0.628585
6265 0.628445
6270 0.628305
6275 0.628165
6280 0.628025
6285 0.627886
6290 0.627747
6295 0.627608
6300 0.627469
6305 0.62733
6310 0.627192
6315 0.627054
6320 0.626917
6325 0.626779
6330 0.626642
6335 0.626505
6340 0.626369
6345 0.626233
6350 0.626097
6355 0.625961
6360 0.625826
6365 0.625691
6370 0.625556
6375 0.625422
6380 0.625288
6385 0.625154
6390 0.625021
6395 0.624888
6400 0.624755
6405 0.624623
6410 0.62449
6415 0.624359
6420 0.624227
6425 0.624096
6430 0.623965
6435 0.623835
6440 0.623704
6445 0.623575
6450 0.623445
6455 0.623316
6460 0.623187
6465 0.623058
6470 0.62293
6475 0.622802
6480 0.622674
6485 0.622547
6490 0.62242
6495 0.622293
6500 0.622166
6505 0.62204
6510 0.621914
6515 0.621789
6520 0.621664
6525 0.621539
6530 0.621414
6535 0.62129
6540 0.621166
6545 0.621042
6550 0.620919
6555 0.620796
6560 0.620673
6565 0.620551
6570 0.620429
6575 0.620307
6580 0.620185
6585 0.620064
6590 0.619943
6595 0.619823
6600 0.619703
6605 0.619583
6610 0.619463
6615 0.619344
6620 0.619225
6625 0.619106
6630 0.618987
6635 0.618869
6640 0.618751
6645 0.618634
6650 0.618517
6655 0.6184
6660 0.618283
6665 0.618167
6670 0.618051
6675 0.617935
6680 0.61782
6685 0.617705
6690 0.61759
6695 0.617475
6700 0.617361
6705 0.617247
6710 0.617134
6715 0.617021
6720 0.616908
6725 0.616795
6730 0.616682
6735 0.61657
6740 0.616459
6745 0.616347
6750 0.616236
6755 0.616125
6760 0.616014
6765 0.615904
6770 0.615794
6775 0.615685
6780 0.615575
6785 0.615466
6790 0.615357
6795 0.615249
6800 0.615141
6805 0.615033
6810 0.614925
6815 0.614818
6820 0.614711
6825 0.614604
6830 0.614498
6835 0.614392
6840 0.614286
6845 0.61418
6850 0.614075
6855 0.61397
6860 0.613865
6865 0.613761
6870 0.613657
6875 0.613553
6880 0.61345
6885 0.613347
6890 0.613244
6895 0.613141
6900 0.613039
6905 0.612937
6910 0.612835
6915 0.612734
6920 0.612633
6925 0.612532
6930 0.612432
6935 0.612331
6940 0.612232
6945 0.612135
6950 0.612038
6955 0.611943
6960 0.61185
6965 0.611758
6970 0.611667
6975 0.611579
6980 0.611491
6985 0.611406
6990 0.611321
6995 0.611238
7000 0.611156
7005 0.611075
7010 0.610996
7015 0.610917
7020 0.610839
7025 0.610762
7030 0.610686
7035 0.61061
7040 0.610535
7045 0.610461
7050 0.610387
7055 0.610313
7060 0.61024
7065 0.610167
7070 0.610095
7075 0.610023
7080 0.609951
7085 0.60988
7090 0.609809
7095 0.609738
7100 0.609668
7105 0.609597
7110 0.609527
7115 0.609457
7120 0.609388
7125 0.609318
7130 0.609249
7135 0.60918
7140 0.609111
7145 0.609042
7150 0.608974
7155 0.608906
7160 0.608838
7165 0.60877
7170 0.608702
7175 0.608634
7180 0.608567
7185 0.6085
7190 0.608432
7195 0.608366
7200 0.608299
7205 0.608232
7210 0.608166
7215 0.6081
7220 0.608033
7225 0.607968
7230 0.607902
7235 0.607836
7240 0.607771
7245 0.607705
7250 0.60764
7255 0.607575
7260 0.607511
7265 0.607446
7270 0.607381
7275 0.607317
7280 0.607253
7285 0.607189
7290 0.607125
7295 0.607061
7300 0.606998
7305 0.606935
7310 0.606871
7315 0.606808
7320 0.606745
7325 0.606683
7330 0.60662
7335 0.606557
7340 0.606495
7345 0.606433
7350 0.606371
7355 0.606309
7360 0.606247
7365 0.606186
7370 0.606125
7375 0.606063
7380 0.606002
7385 0.605941
7390 0.60588
7395 0.60582
7400 0.605759
7405 0.605699
7410 0.605639
7415 0.605579
7420 0.605519
7425 0.605459
7430 0.6054
7435 0.60534
7440 0.605281
7445 0.605222
7450 0.605163
7455 0.605104
7460 0.605045
7465 0.604987
7470 0.604928
7475 0.60487
7480 0.604812
7485 0.604754
7490 0.604696
7495 0.604638
7500 0.604581
7505 0.604524
7510 0.604466
7515 0.604409
7520 0.604352
7525 0.604296
7530 0.604239
7535 0.604183
7540 0.604126
7545 0.60407
7550 0.604014
7555 0.603958
7560 0.603902
7565 0.603847
7570 0.603792
7575 0.603736
7580 0.603681
7585 0.603626
7590 0.603571
7595 0.603517
7600 0.603462
7605 0.603408
7610 0.603354
7615 0.6033
7620 0.603246
7625 0.603192
7630 0.603138
7635 0.603085
7640 0.603032
7645 0.602978
7650 0.602925
7655 0.602873
7660 0.60282
7665 0.602767
7670 0.602715
7675 0.602663
7680 0.602611
7685 0.602559
7690 0.602507
7695 0.602455
7700 0.602404
7705 0.602353
7710 0.602301
7715 0.60225
7720 0.602199
7725 0.602149
7730 0.602098
7735 0.602048
7740 0.601998
7745 0.601947
7750 0.601898
7755 0.601848
7760 0.601798
7765 0.601749
7770 0.601699
7775 0.60165
7780 0.601601
7785 0.601552
7790 0.601504
7795 0.601455
7800 0.601407
7805 0.601358
7810 0.60131
7815 0.601262
7820 0.601215
7825 0.601167
7830 0.601119
7835 0.601072
7840 0.601025
7845 0.600978
7850 0.600931
7855 0.600884
7860 0.600838
7865 0.600791
7870 0.600745
7875 0.600699
7880 0.600653
7885 0.600607
7890 0.600562
7895 0.600516
7900 0.600471
7905 0.600426
7910 0.600381
7915 0.600336
7920 0.600291
7925 0.600246
7930 0.600202
7935 0.600158
7940 0.600114
7945 0.60007
7950 0.600026
7955 0.599982
7960 0.599939
7965 0.599895
7970 0.599852
7975 0.599809
7980 0.599766
7985 0.599723
7990 0.599681
7995 0.599638
8000 0.599596
8005 0.599554
8010 0.599512
8015 0.59947
8020 0.599429
8025 0.599387
8030 0.599346
8035 0.599304
8040 0.599263
8045 0.599222
8050 0.599182
8055 0.599141
8060 0.599101
8065 0.59906
8070 0.59902
8075 0.59898
8080 0.59894
8085 0.598901
8090 0.598861
8095 0.598822
8100 0.598782
8105 0.598743
8110 0.598704
8115 0.598665
8120 0.598627
8125 0.598588
8130 0.59855
8135 0.598512
8140 0.598474
8145 0.598436
8150 0.598398
8155 0.59836
8160 0.598323
8165 0.598286
8170 0.598248
8175 0.598211
8180 0.598175
8185 0.598138
8190 0.598101
8195 0.598065
8200 0.598029
8205 0.597992
8210 0.597956
8215 0.597921
8220 0.597885
8225 0.597849
8230 0.597814
8235 0.597779
8240 0.597744
8245 0.597709
8250 0.597674
8255 0.597639
8260 0.597605
8265 0.597571
8270 0.597536
8275 0.597502
8280 0.597468
8285 0.597435
8290 0.597401
8295 0.597368
8300 0.597334
8305 0.597301
8310 0.597268
8315 0.597235
8320 0.597203
8325 0.59717
8330 0.597138
8335 0.597105
8340 0.597073
8345 0.597041
8350 0.597009
8355 0.596978
8360 0.596946
8365 0.596915
8370 0.596884
8375 0.596852
8380 0.596821
8385 0.596791
8390 0.59676
8395 0.59673
8400 0.596699
8405 0.596669
8410 0.596639
8415 0.596609
8420 0.596579
8425 0.596549
8430 0.59652
8435 0.596491
8440 0.596461
8445 0.596432
8450 0.596403
8455 0.596375
8460 0.596346
8465 0.596318
8470 0.596289
8475 0.596261
8480 0.596233
8485 0.596205
8490 0.596177
8495 0.59615
8500 0.596122
8505 0.596095
8510 0.596068
8515 0.596041
8520 0.596014
8525 0.595987
8530 0.59596
8535 0.595934
8540 0.595908
8545 0.595881
8550 0.595855
8555 0.59583
8560 0.595804
8565 0.595778
8570 0.595753
8575 0.595727
8580 0.595702
8585 0.595677
8590 0.595652
8595 0.595628
8600 0.595603
8605 0.595579
8610 0.595554
8615 0.59553
8620 0.595506
8625 0.595482
8630 0.595458
8635 0.595435
8640 0.595411
8645 0.595388
8650 0.595365
8655 0.595342
8660 0.595319
8665 0.595296
8670 0.595274
8675 0.595251
8680 0.595229
8685 0.595207
8690 0.595185
8695 0.595163
8700 0.595141
8705 0.595119
8710 0.595098
8715 0.595077
8720 0.595055
8725 0.595034
8730 0.595014
8735 0.594993
8740 0.594972
8745 0.594952
8750 0.594931
8755 0.594911
8760 0.594891
8765 0.594871
8770 0.594851
8775 0.594832
8780 0.594812
8785 0.594793
8790 0.594774
8795 0.594755
8800 0.594736
8805 0.594717
8810 0.594698
8815 0.59468
8820 0.594661
8825 0.594643
8830 0.594625
8835 0.594607
8840 0.594589
8845 0.594572
8850 0.594554
8855 0.594537
8860 0.59452
8865 0.594502
8870 0.594485
8875 0.594469
8880 0.594452
8885 0.594435
8890 0.594419
8895 0.594403
8900 0.594386
8905 0.59437
8910 0.594355
8915 0.594339
8920 0.594323
8925 0.594308
8930 0.594293
8935 0.594277
8940 0.594262
8945 0.594247
8950 0.594233
8955 0.594218
8960 0.594204
8965 0.594189
8970 0.594175
8975 0.594161
8980 0.594147
8985 0.594133
8990 0.59412
8995 0.594106
9000 0.594093
9005 0.594079
9010 0.594066
9015 0.594053
9020 0.59404
9025 0.594028
9030 0.594015
9035 0.594003
9040 0.593991
9045 0.593978
9050 0.593966
9055 0.593954
9060 0.593943
9065 0.593931
9070 0.59392
9075 0.593908
9080 0.593897
9085 0.593886
9090 0.593875
9095 0.593864
9100 0.593854
9105 0.593843
9110 0.593833
9115 0.593822
9120 0.593812
9125 0.593802
9130 0.593792
9135 0.593783
9140 0.593773
9145 0.593764
9150 0.593754
9155 0.593745
9160 0.593736
9165 0.593727
9170 0.593718
9175 0.59371
9180 0.593701
9185 0.593693
9190 0.593685
9195 0.593677
9200 0.593669
9205 0.593661
9210 0.593653
9215 0.593645
9220 0.593638
9225 0.593631
9230 0.593623
9235 0.593616
9240 0.59361
9245 0.593603
9250 0.593596
9255 0.59359
9260 0.593583
9265 0.593577
9270 0.593571
9275 0.593565
9280 0.593559
9285 0.593553
9290 0.593548
9295 0.593542
9300 0.593537
9305 0.593532
9310 0.593526
9315 0.593522
9320 0.593517
9325 0.593512
9330 0.593507
9335 0.593503
9340 0.593499
9345 0.593495
9350 0.593491
9355 0.593487
9360 0.593483
9365 0.593479
9370 0.593476
9375 0.593472
9380 0.593469
9385 0.593466
9390 0.593463
9395 0.59346
9400 0.593457
9405 0.593455
9410 0.593452
9415 0.59345
9420 0.593448
9425 0.593446
9430 0.593444
9435 0.593442
9440 0.59344
9445 0.593438
9450 0.593437
9455 0.593436
9460 0.593434
9465 0.593433
9470 0.593432
9475 0.593432
9480 0.593431
9485 0.59343
9490 0.59343
9495 0.59343
9500 0.593429
9505 0.593429
9510 0.593429
9515 0.59343
9520 0.59343
9525 0.59343
9530 0.593431
9535 0.593432
9540 0.593432
9545 0.593433
9550 0.593434
9555 0.593436
9560 0.593437
9565 0.593438
9570 0.59344
9575 0.593442
9580 0.593443
9585 0.593445
9590 0.593447
9595 0.59345
9600 0.593452
9605 0.593454
9610 0.593457
9615 0.593459
9620 0.593462
9625 0.593465
9630 0.593468
9635 0.593471
9640 0.593475
9645 0.593478
9650 0.593482
9655 0.593485
9660 0.593489
9665 0.593493
9670 0.593497
9675 0.593501
9680 0.593505
9685 0.59351
9690 0.593514
9695 0.593519
9700 0.593524
9705 0.593529
9710 0.593534
9715 0.593539
9720 0.593544
9725 0.593549
9730 0.593555
9735 0.59356
9740 0.593566
9745 0.593572
9750 0.593578
9755 0.593584
9760 0.59359
9765 0.593597
9770 0.593603
9775 0.593609
9780 0.593616
9785 0.593623
9790 0.59363
9795 0.593637
9800 0.593644
9805 0.593651
9810 0.593659
9815 0.593666
9820 0.593674
9825 0.593681
9830 0.593689
9835 0.593697
9840 0.593705
9845 0.593714
9850 0.593722
9855 0.59373
9860 0.593739
9865 0.593747
9870 0.593756
9875 0.593765
9880 0.593774
9885 0.593783
9890 0.593792
9895 0.593802
9900 0.593811
9905 0.593821
9910 0.59383
9915 0.59384
9920 0.59385
9925 0.59386
9930 0.59387
9935 0.593881
9940 0.593891
9945 0.593901
9950 0.593912
9955 0.593923
9960 0.593934
9965 0.593945
9970 0.593956
9975 0.593967
9980 0.593978
9985 0.593989
9990 0.594001
9995 0.594013
10000 0.594024
10005 0.594036
10010 0.594048
10015 0.59406
10020 0.594072
10025 0.594085
10030 0.594097
10035 0.59411
10040 0.594122
10045 0.594135
10050 0.594148
10055 0.594161
10060 0.594174
10065 0.594187
10070 0.5942
10075 0.594214
10080 0.594227
10085 0.594241
10090 0.594255
10095 0.594269
10100 0.594282
10105 0.594297
10110 0.594311
10115 0.594325
10120 0.594339
10125 0.594354
10130 0.594369
10135 0.594383
10140 0.594398
10145 0.594413
10150 0.594428
10155 0.594443
10160 0.594459
10165 0.594474
10170 0.594489
10175 0.594505
10180 0.594521
10185 0.594536
10190 0.594552
10195 0.594568
10200 0.594585
10205 0.594601
10210 0.594617
10215 0.594634
10220 0.59465
10225 0.594667
10230 0.594684
10235 0.5947
10240 0.594717
10245 0.594735
10250 0.594752
10255 0.594769
10260 0.594786
10265 0.594804
10270 0.594822
10275 0.594839
10280 0.594857
10285 0.594875
10290 0.594893
10295 0.594911
10300 0.59493
10305 0.594948
10310 0.594966
10315 0.594985
10320 0.595004
10325 0.595022
10330 0.595041
10335 0.59506
10340 0.595079
10345 0.595099
10350 0.595118
10355 0.595137
10360 0.595157
10365 0.595176
10370 0.595196
10375 0.595216
10380 0.595236
10385 0.595256
10390 0.595276
10395 0.595296
10400 0.595317
10405 0.595337
10410 0.595357
10415 0.595378
10420 0.595399
10425 0.59542
10430 0.595441
10435 0.595462
10440 0.595483
10445 0.595504
10450 0.595525
10455 0.595547
10460 0.595568
10465 0.59559
10470 0.595612
10475 0.595633
10480 0.595655
10485 0.595677
10490 0.5957
10495 0.595722
10500 0.595744
10505 0.595766
10510 0.595789
10515 0.595812
10520 0.595834
10525 0.595857
10530 0.59588
10535 0.595903
10540 0.595926
10545 0.595949
10550 0.595973
10555 0.595996
10560 0.59602
10565 0.596043
10570 0.596067
10575 0.596091
10580 0.596114
10585 0.596138
10590 0.596163
10595 0.596187
10600 0.596211
10605 0.596235
10610 0.59626
10615 0.596284
10620 0.596309
10625 0.596334
10630 0.596358
10635 0.596383
10640 0.596408
10645 0.596433
10650 0.596459
10655 0.596484
10660 0.596509
10665 0.596535
10670 0.59656
10675 0.596586
10680 0.596612
10685 0.596638
10690 0.596664
10695 0.59669
10700 0.596716
10705 0.596742
10710 0.596768
10715 0.596795
10720 0.596821
10725 0.596848
10730 0.596874
10735 0.596901
10740 0.596928
10745 0.596955
10750 0.596982
10755 0.597009
10760 0.597036
10765 0.597063
10770 0.59709
10775 0.597118
10780 0.597145
10785 0.597173
10790 0.597201
10795 0.597228
10800 0.597256
10805 0.597284
10810 0.597312
10815 0.59734
10820 0.597368