/*--------------------------------*- C++ -*----------------------------------*\
| =========                 |                                                 |
| \\      /  F ield         | OpenFOAM: The Open Source CFD Toolbox           |
|  \\    /   O peration     | Version:  dev                                   |
|   \\  /    A nd           | Web:      www.OpenFOAM.org                      |
|    \\/     M anipulation  |                                                 |
\*---------------------------------------------------------------------------*/
FoamFile
{
    version     2.0;
    format      ascii;
    class       volScalarField;
    location    "0";
    object      nut;
}
// * * * * * * * * * * * * * * * * * * * * * * * * * * * * * * * * * * * * * //

dimensions      [0 2 -1 0 0 0 0];

internalField   uniform 0;

boundaryField
{
    ground
    {
        type            nutkAtmRoughWallFunction;
        z0              uniform 0.1;
        value           uniform 0;
    }
    top
    {
        type            zeroGradient;
        value           uniform 0;
    }
    inlet
    {
        type            cyclic;
        value           uniform 0;
    }
    outlet
    {
        type            cyclic;
        value           uniform 0;
    }
    front
    {
        type           zeroGradient;
    }
    back
    {
        type           zeroGradient;
    }
}


// ************************************************************************* //
