1 0.973102
2 1.21405
3 1.48341
4 1.75333
5 1.98134
6 2.1399
7 2.21478
8 2.21298
9 2.15537
10 2.06779
11 1.96648
12 1.86452
13 1.76928
14 1.68142
15 1.60317
16 1.53486
17 1.48017
18 1.43304
19 1.39251
20 1.35911
21 1.3325
22 1.31202
23 1.29738
24 1.2877
25 1.28232
26 1.28034
27 1.28088
28 1.28311
29 1.28633
30 1.29005
31 1.29567
32 1.30119
33 1.30561
34 1.30938
35 1.31235
36 1.31453
37 1.31598
38 1.3168
39 1.31704
40 1.31678
41 1.31616
42 1.31507
43 1.31354
44 1.31162
45 1.30937
46 1.30681
47 1.30395
48 1.30079
49 1.2974
50 1.29391
51 1.2904
52 1.28686
53 1.28328
54 1.27964
55 1.2759
56 1.27216
57 1.26853
58 1.26502
59 1.26159
60 1.2582
61 1.2548
62 1.25135
63 1.24791
64 1.24468
65 1.24162
66 1.23869
67 1.23581
68 1.23293
69 1.23002
70 1.22707
71 1.22425
72 1.22161
73 1.2191
74 1.21666
75 1.21424
76 1.2118
77 1.20932
78 1.20686
79 1.20452
80 1.2023
81 1.20017
82 1.19808
83 1.19598
84 1.19386
85 1.19173
86 1.18964
87 1.18763
88 1.1857
89 1.18382
90 1.18196
91 1.1801
92 1.17822
93 1.17636
94 1.17453
95 1.17276
96 1.17103
97 1.16934
98 1.16766
99 1.16599
100 1.16431
101 1.16265
102 1.16102
103 1.15942
104 1.15786
105 1.15632
106 1.15479
107 1.15326
108 1.15175
109 1.15024
110 1.14877
111 1.14731
112 1.14588
113 1.14446
114 1.14306
115 1.14167
116 1.14028
117 1.13891
118 1.13756
119 1.13622
120 1.1349
121 1.1336
122 1.1323
123 1.13102
124 1.12974
125 1.12848
126 1.12723
127 1.12599
128 1.12477
129 1.12356
130 1.12235
131 1.12116
132 1.11998
133 1.11881
134 1.11765
135 1.1165
136 1.11536
137 1.11423
138 1.11311
139 1.112
140 1.1109
141 1.10981
142 1.10872
143 1.10765
144 1.10658
145 1.10553
146 1.10448
147 1.10344
148 1.10241
149 1.10139
150 1.10038
151 1.09937
152 1.09837
153 1.09738
154 1.0964
155 1.09543
156 1.09446
157 1.0935
158 1.09254
159 1.0916
160 1.09066
161 1.08973
162 1.08881
163 1.08789
164 1.08698
165 1.08607
166 1.08517
167 1.08428
168 1.0834
169 1.08252
170 1.08165
171 1.08078
172 1.07992
173 1.07907
174 1.07822
175 1.07738
176 1.07655
177 1.07572
178 1.07489
179 1.07407
180 1.07326
181 1.07245
182 1.07165
183 1.07085
184 1.07007
185 1.06927
186 1.06852
187 1.06772
188 1.06711
189 1.06641
190 1.0656
191 1.06489
192 1.0641
193 1.06351
194 1.06279
195 1.06198
196 1.06127
197 1.06047
198 1.05995
199 1.05928
200 1.05845
201 1.05792
202 1.05722
203 1.05638
204 1.05582
205 1.0551
206 1.0543
207 1.05355
208 1.05274
209 1.05229
210 1.05165
211 1.05083
212 1.05051
213 1.04991
214 1.04912
215 1.04868
216 1.04823
217 1.04767
218 1.0472
219 1.04668
220 1.04612
221 1.04559
222 1.04502
223 1.04444
224 1.04388
225 1.04328
226 1.04266
227 1.04206
228 1.04146
229 1.04085
230 1.04021
231 1.03961
232 1.03902
233 1.03841
234 1.03779
235 1.03716
236 1.03657
237 1.03599
238 1.0354
239 1.0348
240 1.03419
241 1.03358
242 1.03302
243 1.03246
244 1.0319
245 1.03132
246 1.03074
247 1.03016
248 1.02958
249 1.02905
250 1.02851
251 1.02797
252 1.02742
253 1.02687
254 1.02631
255 1.02575
256 1.02519
257 1.02463
258 1.02407
259 1.02352
260 1.02296
261 1.02242
262 1.02187
263 1.02134
264 1.0208
265 1.02027
266 1.01974
267 1.01922
268 1.01875
269 1.01828
270 1.01779
271 1.01731
272 1.01681
273 1.01631
274 1.01581
275 1.0153
276 1.0148
277 1.01429
278 1.01378
279 1.01328
280 1.01277
281 1.01227
282 1.01177
283 1.01127
284 1.01078
285 1.01029
286 1.0098
287 1.00931
288 1.00883
289 1.00835
290 1.00788
291 1.0074
292 1.00693
293 1.00647
294 1.006
295 1.00554
296 1.00508
297 1.00462
298 1.00417
299 1.00371
300 1.00326
301 1.00281
302 1.00236
303 1.00192
304 1.00148
305 1.00103
306 1.0006
307 1.00016
308 0.999722
309 0.999287
310 0.998855
311 0.998425
312 0.997996
313 0.997569
314 0.997144
315 0.99672
316 0.996298
317 0.995878
318 0.99546
319 0.995044
320 0.994629
321 0.994216
322 0.993804
323 0.993395
324 0.992987
325 0.99258
326 0.992176
327 0.991773
328 0.991371
329 0.990972
330 0.990574
331 0.990177
332 0.989783
333 0.98939
334 0.988998
335 0.988608
336 0.98822
337 0.987833
338 0.987448
339 0.987065
340 0.986683
341 0.986302
342 0.985923
343 0.985546
344 0.98517
345 0.984795
346 0.984423
347 0.984051
348 0.983681
349 0.983312
350 0.982945
351 0.982579
352 0.982215
353 0.981852
354 0.981491
355 0.98113
356 0.980772
357 0.980414
358 0.980058
359 0.979703
360 0.97935
361 0.978998
362 0.978647
363 0.978297
364 0.977949
365 0.977602
366 0.977256
367 0.976911
368 0.976568
369 0.976226
370 0.975885
371 0.975545
372 0.975207
373 0.974869
374 0.974533
375 0.974198
376 0.973864
377 0.973531
378 0.9732
379 0.972869
380 0.97254
381 0.972212
382 0.971885
383 0.971559
384 0.971234
385 0.97091
386 0.970587
387 0.970265
388 0.969944
389 0.969625
390 0.969306
391 0.968989
392 0.968672
393 0.968356
394 0.968042
395 0.967728
396 0.967416
397 0.967104
398 0.966793
399 0.966484
400 0.966175
401 0.965867
402 0.96556
403 0.965254
404 0.964949
405 0.964645
406 0.964342
407 0.96404
408 0.963739
409 0.963439
410 0.963139
411 0.962841
412 0.962543
413 0.962246
414 0.96195
415 0.961655
416 0.961361
417 0.961067
418 0.960775
419 0.960483
420 0.960192
421 0.959902
422 0.959613
423 0.959325
424 0.959038
425 0.958751
426 0.958465
427 0.95818
428 0.957896
429 0.957612
430 0.957329
431 0.957047
432 0.956766
433 0.956486
434 0.956206
435 0.955928
436 0.95565
437 0.955372
438 0.955096
439 0.95482
440 0.954545
441 0.954271
442 0.953997
443 0.953724
444 0.953452
445 0.953181
446 0.95291
447 0.95264
448 0.952371
449 0.952102
450 0.951834
451 0.951567
452 0.951301
453 0.951035
454 0.95077
455 0.950505
456 0.950242
457 0.949978
458 0.949716
459 0.949454
460 0.949195
461 0.948934
462 0.948682
463 0.948426
464 0.948181
465 0.947932
466 0.94769
467 0.947444
468 0.947205
469 0.946961
470 0.946723
471 0.94648
472 0.946242
473 0.945999
474 0.945761
475 0.945517
476 0.945278
477 0.945033
478 0.944794
479 0.944548
480 0.944308
481 0.944062
482 0.943822
483 0.943575
484 0.943335
485 0.943088
486 0.942848
487 0.942602
488 0.942362
489 0.942117
490 0.941878
491 0.941633
492 0.941396
493 0.941152
494 0.940916
495 0.940673
496 0.940438
497 0.940196
498 0.939963
499 0.939723
500 0.93949
501 0.939252
502 0.939021
503 0.938783
504 0.938554
505 0.938318
506 0.93809
507 0.937855
508 0.937628
509 0.937395
510 0.937169
511 0.936937
512 0.936713
513 0.936482
514 0.936259
515 0.936029
516 0.935808
517 0.935579
518 0.935358
519 0.935131
520 0.934912
521 0.934685
522 0.934467
523 0.934242
524 0.934024
525 0.9338
526 0.933584
527 0.933361
528 0.933146
529 0.932924
530 0.93271
531 0.932489
532 0.932276
533 0.932056
534 0.931844
535 0.931625
536 0.931415
537 0.931197
538 0.930987
539 0.93077
540 0.930561
541 0.930345
542 0.930138
543 0.929922
544 0.929716
545 0.929502
546 0.929296
547 0.929083
548 0.928878
549 0.928666
550 0.928463
551 0.928251
552 0.928049
553 0.927838
554 0.927637
555 0.927427
556 0.927227
557 0.927018
558 0.926818
559 0.926611
560 0.926412
561 0.926205
562 0.926007
563 0.925801
564 0.925604
565 0.925399
566 0.925203
567 0.924999
568 0.924804
569 0.924601
570 0.924407
571 0.924204
572 0.924011
573 0.923809
574 0.923617
575 0.923416
576 0.923225
577 0.923025
578 0.922834
579 0.922635
580 0.922445
581 0.922247
582 0.922058
583 0.921861
584 0.921673
585 0.921476
586 0.921289
587 0.921093
588 0.920907
589 0.920712
590 0.920526
591 0.920332
592 0.920147
593 0.919954
594 0.91977
595 0.919577
596 0.919394
597 0.919203
598 0.91902
599 0.918828
600 0.918647
601 0.918457
602 0.918276
603 0.918086
604 0.917906
605 0.917731
606 0.91755
607 0.917354
608 0.917149
609 0.916965
610 0.916785
611 0.9166
612 0.916403
613 0.916196
614 0.916014
615 0.915835
616 0.915653
617 0.915459
618 0.915257
619 0.915082
620 0.914911
621 0.914735
622 0.914547
623 0.914351
624 0.914183
625 0.914016
626 0.91385
627 0.913684
628 0.913499
629 0.913318
630 0.913131
631 0.912972
632 0.912812
633 0.91265
634 0.912486
635 0.912325
636 0.912143
637 0.911965
638 0.91178
639 0.911621
640 0.91146
641 0.911299
642 0.911136
643 0.910968
644 0.910796
645 0.910628
646 0.910443
647 0.910257
648 0.910064
649 0.909903
650 0.909741
651 0.90958
652 0.909417
653 0.909251
654 0.909082
655 0.908917
656 0.908736
657 0.908556
658 0.908369
659 0.908215
660 0.908059
661 0.907903
662 0.907746
663 0.907585
664 0.907421
665 0.907253
666 0.90708
667 0.906912
668 0.906731
669 0.906549
670 0.90636
671 0.906208
672 0.906054
673 0.905901
674 0.905748
675 0.905592
676 0.905432
677 0.905269
678 0.905101
679 0.90493
680 0.904765
681 0.904587
682 0.90441
683 0.904226
684 0.90408
685 0.903933
686 0.903786
687 0.903638
688 0.903488
689 0.903334
690 0.903176
691 0.903014
692 0.902848
693 0.902679
694 0.902506
695 0.90234
696 0.90217
697 0.902001
698 0.901834
699 0.901666
700 0.901497
701 0.901328
702 0.901167
703 0.901004
704 0.900843
705 0.900683
706 0.900524
707 0.900364
708 0.900204
709 0.900043
710 0.899889
711 0.899733
712 0.899578
713 0.899425
714 0.899271
715 0.899117
716 0.898962
717 0.898805
718 0.898656
719 0.898503
720 0.898353
721 0.898202
722 0.898052
723 0.8979
724 0.897747
725 0.897593
726 0.897437
727 0.897279
728 0.89713
729 0.896977
730 0.896826
731 0.896676
732 0.896526
733 0.896375
734 0.896223
735 0.89607
736 0.895916
737 0.895761
738 0.895604
739 0.895448
740 0.89529
741 0.895141
742 0.894989
743 0.89484
744 0.894692
745 0.894545
746 0.894398
747 0.89425
748 0.894101
749 0.893952
750 0.893801
751 0.89365
752 0.893498
753 0.893345
754 0.893192
755 0.893039
756 0.892885
757 0.892732
758 0.892587
759 0.892441
760 0.892297
761 0.892155
762 0.892015
763 0.891874
764 0.891733
765 0.891591
766 0.891448
767 0.891305
768 0.891161
769 0.891016
770 0.890871
771 0.890726
772 0.890581
773 0.890435
774 0.89029
775 0.890145
776 0.89
777 0.889856
778 0.889712
779 0.889569
780 0.889426
781 0.889284
782 0.889143
783 0.889002
784 0.888861
785 0.888721
786 0.888581
787 0.888442
788 0.888303
789 0.888164
790 0.888026
791 0.887888
792 0.887751
793 0.887613
794 0.887476
795 0.887338
796 0.887202
797 0.887065
798 0.886928
799 0.886791
800 0.886655
801 0.886518
802 0.886383
803 0.886246
804 0.886111
805 0.885974
806 0.885839
807 0.885703
808 0.885568
809 0.885433
810 0.885298
811 0.885162
812 0.885028
813 0.884893
814 0.884759
815 0.884624
816 0.88449
817 0.884356
818 0.884222
819 0.884088
820 0.883955
821 0.883821
822 0.883688
823 0.883555
824 0.883423
825 0.88329
826 0.883158
827 0.883026
828 0.882894
829 0.882762
830 0.882631
831 0.882499
832 0.882368
833 0.882237
834 0.882107
835 0.881976
836 0.881846
837 0.881716
838 0.881587
839 0.881457
840 0.881328
841 0.881199
842 0.881071
843 0.880942
844 0.880814
845 0.880687
846 0.880559
847 0.880432
848 0.880305
849 0.880178
850 0.880052
851 0.879925
852 0.8798
853 0.879674
854 0.879548
855 0.879423
856 0.879298
857 0.879173
858 0.879049
859 0.878924
860 0.8788
861 0.878676
862 0.878552
863 0.878428
864 0.878304
865 0.878181
866 0.878057
867 0.877934
868 0.877811
869 0.877688
870 0.877565
871 0.877442
872 0.87732
873 0.877197
874 0.877075
875 0.876953
876 0.876831
877 0.876709
878 0.876587
879 0.876465
880 0.876344
881 0.876223
882 0.876102
883 0.875981
884 0.87586
885 0.87574
886 0.875619
887 0.875499
888 0.875379
889 0.87526
890 0.87514
891 0.875021
892 0.874902
893 0.874783
894 0.874664
895 0.874545
896 0.874427
897 0.874309
898 0.874191
899 0.874073
900 0.873956
901 0.873838
902 0.873721
903 0.873604
904 0.873488
905 0.873371
906 0.873255
907 0.873139
908 0.873023
909 0.872907
910 0.872792
911 0.872677
912 0.872561
913 0.872447
914 0.872332
915 0.872217
916 0.872103
917 0.871989
918 0.871875
919 0.871761
920 0.871648
921 0.871534
922 0.871421
923 0.871308
924 0.871195
925 0.871083
926 0.87097
927 0.870858
928 0.870746
929 0.870634
930 0.870522
931 0.870411
932 0.870299
933 0.870188
934 0.870077
935 0.869966
936 0.869856
937 0.869745
938 0.869635
939 0.869525
940 0.869415
941 0.869305
942 0.869196
943 0.869086
944 0.868977
945 0.868868
946 0.868759
947 0.868651
948 0.868542
949 0.868434
950 0.868326
951 0.868218
952 0.86811
953 0.868002
954 0.867895
955 0.867787
956 0.86768
957 0.867573
958 0.867466
959 0.86736
960 0.867253
961 0.867147
962 0.867041
963 0.866935
964 0.866829
965 0.866724
966 0.866618
967 0.866513
968 0.866408
969 0.866303
970 0.866198
971 0.866093
972 0.865989
973 0.865884
974 0.86578
975 0.865676
976 0.865572
977 0.865469
978 0.865365
979 0.865262
980 0.865158
981 0.865055
982 0.864952
983 0.86485
984 0.864747
985 0.864645
986 0.864542
987 0.86444
988 0.864338
989 0.864236
990 0.864135
991 0.864033
992 0.863932
993 0.86383
994 0.863729
995 0.863628
996 0.863528
997 0.863427
998 0.863326
999 0.863226
1000 0.863126
1001 0.863026
1002 0.862926
1003 0.862826
1004 0.862727
1005 0.862627
1006 0.862528
1007 0.862429
1008 0.86233
1009 0.862231
1010 0.862132
1011 0.862033
1012 0.861935
1013 0.861837
1014 0.861738
1015 0.86164
1016 0.861543
1017 0.861445
1018 0.861347
1019 0.86125
1020 0.861152
1021 0.861055
1022 0.860958
1023 0.860861
1024 0.860764
1025 0.860668
1026 0.860571
1027 0.860475
1028 0.860379
1029 0.860283
1030 0.860187
1031 0.860091
1032 0.859995
1033 0.859899
1034 0.859804
1035 0.859709
1036 0.859614
1037 0.859519
1038 0.859424
1039 0.859329
1040 0.859234
1041 0.85914
1042 0.859045
1043 0.858951
1044 0.858857
1045 0.858763
1046 0.858669
1047 0.858575
1048 0.858482
1049 0.858388
1050 0.858295
1051 0.858201
1052 0.858108
1053 0.858015
1054 0.857922
1055 0.85783
1056 0.857737
1057 0.857644
1058 0.857552
1059 0.85746
1060 0.857368
1061 0.857276
1062 0.857184
1063 0.857092
1064 0.857
1065 0.856909
1066 0.856817
1067 0.856726
1068 0.856635
1069 0.856544
1070 0.856452
1071 0.856359
1072 0.856265
1073 0.85617
1074 0.856075
1075 0.85598
1076 0.855885
1077 0.85579
1078 0.855696
1079 0.855603
1080 0.855509
1081 0.855414
1082 0.85532
1083 0.855225
1084 0.855131
1085 0.855038
1086 0.854945
1087 0.854853
1088 0.854759
1089 0.854666
1090 0.854572
1091 0.85448
1092 0.854388
1093 0.854296
1094 0.854203
1095 0.854111
1096 0.854019
1097 0.853928
1098 0.853837
1099 0.853745
1100 0.853654
1101 0.853563
1102 0.853473
1103 0.853384
1104 0.853293
1105 0.853203
1106 0.853113
1107 0.853025
1108 0.852937
1109 0.852849
1110 0.852761
1111 0.852673
1112 0.852586
1113 0.8525
1114 0.852414
1115 0.852327
1116 0.852241
1117 0.852155
1118 0.852069
1119 0.851983
1120 0.851896
1121 0.85181
1122 0.851724
1123 0.851637
1124 0.851549
1125 0.851463
1126 0.851375
1127 0.851287
1128 0.8512
1129 0.851112
1130 0.851024
1131 0.850936
1132 0.850849
1133 0.850763
1134 0.850676
1135 0.85059
1136 0.850504
1137 0.850418
1138 0.850332
1139 0.850247
1140 0.850163
1141 0.85008
1142 0.849996
1143 0.849913
1144 0.84983
1145 0.84975
1146 0.849669
1147 0.84959
1148 0.849512
1149 0.849433
1150 0.849355
1151 0.849276
1152 0.8492
1153 0.849122
1154 0.849046
1155 0.84897
1156 0.848896
1157 0.84882
1158 0.848744
1159 0.848669
1160 0.848591
1161 0.848515
1162 0.848438
1163 0.848362
1164 0.848284
1165 0.848208
1166 0.848131
1167 0.848056
1168 0.847979
1169 0.847901
1170 0.847824
1171 0.847744
1172 0.847665
1173 0.847585
1174 0.847506
1175 0.847426
1176 0.847347
1177 0.847267
1178 0.847189
1179 0.84711
1180 0.847032
1181 0.846954
1182 0.846878
1183 0.8468
1184 0.846724
1185 0.846646
1186 0.846568
1187 0.846489
1188 0.846408
1189 0.846328
1190 0.846246
1191 0.846166
1192 0.846084
1193 0.846003
1194 0.845922
1195 0.845842
1196 0.845762
1197 0.845683
1198 0.845603
1199 0.845526
1200 0.845447
1201 0.84537
1202 0.845292
1203 0.845213
1204 0.845134
1205 0.845052
1206 0.844973
1207 0.844891
1208 0.844811
1209 0.844729
1210 0.844649
1211 0.844569
1212 0.84449
1213 0.84441
1214 0.844333
1215 0.844255
1216 0.844178
1217 0.844101
1218 0.844026
1219 0.84395
1220 0.843876
1221 0.8438
1222 0.843727
1223 0.843651
1224 0.843574
1225 0.843498
1226 0.843418
1227 0.843341
1228 0.843261
1229 0.843182
1230 0.843102
1231 0.843024
1232 0.842945
1233 0.842867
1234 0.842789
1235 0.842713
1236 0.842636
1237 0.842561
1238 0.842484
1239 0.842407
1240 0.84233
1241 0.842251
1242 0.842174
1243 0.842095
1244 0.842018
1245 0.84194
1246 0.841863
1247 0.841786
1248 0.841711
1249 0.841634
1250 0.841557
1251 0.84148
1252 0.841402
1253 0.841325
1254 0.841247
1255 0.841171
1256 0.841095
1257 0.84102
1258 0.840943
1259 0.840866
1260 0.84079
1261 0.840713
1262 0.840637
1263 0.84056
1264 0.840486
1265 0.840409
1266 0.840332
1267 0.840256
1268 0.840178
1269 0.840103
1270 0.840026
1271 0.839952
1272 0.839876
1273 0.8398
1274 0.839725
1275 0.839649
1276 0.839575
1277 0.8395
1278 0.839427
1279 0.839353
1280 0.839278
1281 0.839205
1282 0.83913
1283 0.839058
1284 0.838985
1285 0.838914
1286 0.838841
1287 0.838768
1288 0.838696
1289 0.838623
1290 0.838552
1291 0.838479
1292 0.838405
1293 0.838332
1294 0.838258
1295 0.838186
1296 0.838112
1297 0.838037
1298 0.837964
1299 0.837889
1300 0.837817
1301 0.837743
1302 0.837668
1303 0.837595
1304 0.83752
1305 0.837449
1306 0.837376
1307 0.837302
1308 0.83723
1309 0.837157
1310 0.837086
1311 0.837014
1312 0.836942
1313 0.836871
1314 0.836799
1315 0.83673
1316 0.836659
1317 0.836587
1318 0.836517
1319 0.836446
1320 0.836378
1321 0.836308
1322 0.836237
1323 0.836168
1324 0.836098
1325 0.83603
1326 0.835961
1327 0.835891
1328 0.835822
1329 0.835752
1330 0.835685
1331 0.835616
1332 0.835546
1333 0.835478
1334 0.835408
1335 0.835341
1336 0.835272
1337 0.835203
1338 0.835135
1339 0.835065
1340 0.834999
1341 0.83493
1342 0.834861
1343 0.834793
1344 0.834723
1345 0.834653
1346 0.834583
1347 0.834511
1348 0.834443
1349 0.834372
1350 0.834301
1351 0.834232
1352 0.834161
1353 0.83409
1354 0.834019
1355 0.833948
1356 0.833875
1357 0.833803
1358 0.833731
1359 0.833657
1360 0.833585
1361 0.833512
1362 0.833438
1363 0.833366
1364 0.833293
1365 0.833219
1366 0.833147
1367 0.833075
1368 0.833002
1369 0.832932
1370 0.83286
1371 0.832788
1372 0.832719
1373 0.832648
1374 0.832578
1375 0.832509
1376 0.83244
1377 0.832371
1378 0.832303
1379 0.832235
1380 0.832166
1381 0.8321
1382 0.832032
1383 0.831964
1384 0.831898
1385 0.831832
1386 0.831765
1387 0.831699
1388 0.831633
1389 0.831566
1390 0.831502
1391 0.831436
1392 0.831369
1393 0.831301
1394 0.831232
1395 0.831162
1396 0.831091
1397 0.831018
1398 0.830944
1399 0.830869
1400 0.830791
1401 0.830713
1402 0.830633
1403 0.830552
1404 0.83047
1405 0.830387
1406 0.830304
1407 0.830221
1408 0.830137
1409 0.830054
1410 0.829971
1411 0.829888
1412 0.829806
1413 0.829725
1414 0.829644
1415 0.829564
1416 0.829485
1417 0.829408
1418 0.829331
1419 0.829255
1420 0.829181
1421 0.829108
1422 0.829037
1423 0.828967
1424 0.828899
1425 0.828832
1426 0.828767
1427 0.828703
1428 0.828641
1429 0.828579
1430 0.828518
1431 0.828467
1432 0.828411
1433 0.828354
1434 0.828299
1435 0.828244
1436 0.828191
1437 0.828143
1438 0.828094
1439 0.828047
1440 0.828004
1441 0.82796
1442 0.827917
1443 0.827876
1444 0.827833
1445 0.827788
1446 0.827741
1447 0.827693
1448 0.827642
1449 0.827588
1450 0.827532
1451 0.827474
1452 0.827413
1453 0.827349
1454 0.827283
1455 0.827215
1456 0.827145
1457 0.827074
1458 0.827002
1459 0.82693
1460 0.826857
1461 0.826783
1462 0.82671
1463 0.826637
1464 0.826565
1465 0.826493
1466 0.826422
1467 0.826351
1468 0.826281
1469 0.826212
1470 0.826143
1471 0.826075
1472 0.826007
1473 0.825941
1474 0.825874
1475 0.825809
1476 0.825743
1477 0.825678
1478 0.825614
1479 0.82555
1480 0.825486
1481 0.825422
1482 0.825358
1483 0.825295
1484 0.825231
1485 0.825168
1486 0.825104
1487 0.82504
1488 0.824976
1489 0.824911
1490 0.824845
1491 0.824776
1492 0.824706
1493 0.82465
1494 0.824591
1495 0.824531
1496 0.824472
1497 0.824411
1498 0.824351
1499 0.82429
1500 0.824229
1501 0.824167
1502 0.824105
1503 0.824042
1504 0.82398
1505 0.823917
1506 0.823854
1507 0.82379
1508 0.823739
1509 0.823681
1510 0.823624
1511 0.823567
1512 0.82351
1513 0.823452
1514 0.823395
1515 0.823337
1516 0.823279
1517 0.82322
1518 0.823161
1519 0.823102
1520 0.823042
1521 0.822981
1522 0.82292
1523 0.822858
1524 0.822794
1525 0.822729
1526 0.82266
1527 0.822589
1528 0.822512
1529 0.822433
1530 0.822354
1531 0.822276
1532 0.8222
1533 0.822125
1534 0.822066
1535 0.822007
1536 0.821954
1537 0.821901
1538 0.821845
1539 0.821781
1540 0.82173
1541 0.821678
1542 0.821625
1543 0.82157
1544 0.821507
1545 0.821439
1546 0.82137
1547 0.821302
1548 0.821247
1549 0.821185
1550 0.821132
1551 0.82108
1552 0.821027
1553 0.820978
1554 0.820927
1555 0.820871
1556 0.820808
1557 0.82074
1558 0.820683
1559 0.820617
1560 0.820545
1561 0.820473
1562 0.820403
1563 0.820345
1564 0.820279
1565 0.820224
1566 0.820177
1567 0.820129
1568 0.820079
1569 0.820028
1570 0.819976
1571 0.819922
1572 0.819866
1573 0.819807
1574 0.819745
1575 0.819682
1576 0.819622
1577 0.819561
1578 0.819499
1579 0.819436
1580 0.819372
1581 0.819308
1582 0.819244
1583 0.81918
1584 0.819117
1585 0.819052
1586 0.818988
1587 0.818923
1588 0.81886
1589 0.818797
1590 0.818733
1591 0.81867
1592 0.818607
1593 0.818545
1594 0.818483
1595 0.818421
1596 0.818359
1597 0.818297
1598 0.818237
1599 0.818176
1600 0.818115
1601 0.818054
1602 0.817995
1603 0.817936
1604 0.817876
1605 0.817816
1606 0.817757
1607 0.817698
1608 0.817639
1609 0.817579
1610 0.817521
1611 0.817463
1612 0.817403
1613 0.817344
1614 0.817286
1615 0.817228
1616 0.817169
1617 0.81711
1618 0.817052
1619 0.816995
1620 0.816936
1621 0.816877
1622 0.81682
1623 0.816763
1624 0.816705
1625 0.816647
1626 0.81659
1627 0.816533
1628 0.816476
1629 0.816418
1630 0.816362
1631 0.816305
1632 0.816248
1633 0.816191
1634 0.816135
1635 0.816079
1636 0.816022
1637 0.815965
1638 0.815909
1639 0.815854
1640 0.815797
1641 0.81574
1642 0.815685
1643 0.81563
1644 0.815573
1645 0.815518
1646 0.815463
1647 0.815407
1648 0.81535
1649 0.815295
1650 0.81524
1651 0.815183
1652 0.815128
1653 0.815073
1654 0.815017
1655 0.81496
1656 0.814905
1657 0.814849
1658 0.814792
1659 0.814737
1660 0.814682
1661 0.814625
1662 0.81457
1663 0.814515
1664 0.814458
1665 0.814403
1666 0.814347
1667 0.814291
1668 0.814234
1669 0.814178
1670 0.814123
1671 0.814066
1672 0.81401
1673 0.813955
1674 0.813898
1675 0.813843
1676 0.813788
1677 0.813732
1678 0.813675
1679 0.81362
1680 0.813565
1681 0.813508
1682 0.813454
1683 0.813399
1684 0.813343
1685 0.813287
1686 0.813232
1687 0.813178
1688 0.813122
1689 0.813068
1690 0.813014
1691 0.812958
1692 0.812903
1693 0.812849
1694 0.812795
1695 0.81274
1696 0.812686
1697 0.812632
1698 0.812577
1699 0.812522
1700 0.812469
1701 0.812415
1702 0.81236
1703 0.812307
1704 0.812253
1705 0.812198
1706 0.812144
1707 0.81209
1708 0.812036
1709 0.811982
1710 0.811927
1711 0.811873
1712 0.81182
1713 0.811765
1714 0.811712
1715 0.811659
1716 0.811605
1717 0.81155
1718 0.811497
1719 0.811444
1720 0.81139
1721 0.811335
1722 0.811282
1723 0.811229
1724 0.811175
1725 0.811122
1726 0.811069
1727 0.811015
1728 0.810961
1729 0.810908
1730 0.810855
1731 0.810801
1732 0.810747
1733 0.810694
1734 0.810641
1735 0.810587
1736 0.810535
1737 0.810482
1738 0.810428
1739 0.810375
1740 0.810322
1741 0.810269
1742 0.810215
1743 0.810163
1744 0.81011
1745 0.810056
1746 0.810002
1747 0.80995
1748 0.809897
1749 0.809843
1750 0.80979
1751 0.809738
1752 0.809684
1753 0.80963
1754 0.809577
1755 0.809525
1756 0.809471
1757 0.809418
1758 0.809366
1759 0.809312
1760 0.809259
1761 0.809206
1762 0.809154
1763 0.8091
1764 0.809048
1765 0.808996
1766 0.808943
1767 0.808889
1768 0.808837
1769 0.808785
1770 0.808732
1771 0.80868
1772 0.808628
1773 0.808575
1774 0.808523
1775 0.808471
1776 0.808418
1777 0.808365
1778 0.808314
1779 0.808261
1780 0.808208
1781 0.808157
1782 0.808105
1783 0.808052
1784 0.808001
1785 0.807949
1786 0.807897
1787 0.807845
1788 0.807793
1789 0.807741
1790 0.807689
1791 0.807638
1792 0.807585
1793 0.807533
1794 0.807481
1795 0.807429
1796 0.807377
1797 0.807325
1798 0.807272
1799 0.807221
1800 0.807169
1801 0.807116
1802 0.807065
1803 0.807013
1804 0.806961
1805 0.806909
1806 0.806858
1807 0.806805
1808 0.806754
1809 0.806703
1810 0.80665
1811 0.806599
1812 0.806548
1813 0.806496
1814 0.806445
1815 0.806395
1816 0.806343
1817 0.806292
1818 0.806241
1819 0.80619
1820 0.806139
1821 0.806089
1822 0.806037
1823 0.805987
1824 0.805937
1825 0.805885
1826 0.805835
1827 0.805785
1828 0.805734
1829 0.805684
1830 0.805634
1831 0.805583
1832 0.805533
1833 0.805484
1834 0.805433
1835 0.805383
1836 0.805333
1837 0.805283
1838 0.805233
1839 0.805184
1840 0.805133
1841 0.805084
1842 0.805034
1843 0.804984
1844 0.804934
1845 0.804885
1846 0.804835
1847 0.804785
1848 0.804736
1849 0.804686
1850 0.804637
1851 0.804588
1852 0.804538
1853 0.804489
1854 0.80444
1855 0.804389
1856 0.804341
1857 0.804292
1858 0.804242
1859 0.804193
1860 0.804144
1861 0.804094
1862 0.804046
1863 0.803997
1864 0.803947
1865 0.803899
1866 0.80385
1867 0.8038
1868 0.803752
1869 0.803703
1870 0.803654
1871 0.803605
1872 0.803557
1873 0.803507
1874 0.803459
1875 0.803411
1876 0.803361
1877 0.803313
1878 0.803265
1879 0.803216
1880 0.803168
1881 0.80312
1882 0.803071
1883 0.803023
1884 0.802975
1885 0.802926
1886 0.802878
1887 0.80283
1888 0.802781
1889 0.802733
1890 0.802685
1891 0.802636
1892 0.802589
1893 0.802541
1894 0.802492
1895 0.802445
1896 0.802397
1897 0.802349
1898 0.802301
1899 0.802254
1900 0.802205
1901 0.802158
1902 0.80211
1903 0.802062
1904 0.802015
1905 0.801967
1906 0.801919
1907 0.801872
1908 0.801825
1909 0.801776
1910 0.801729
1911 0.801682
1912 0.801634
1913 0.801587
1914 0.80154
1915 0.801492
1916 0.801445
1917 0.801398
1918 0.801351
1919 0.801304
1920 0.801257
1921 0.801209
1922 0.801163
1923 0.801116
1924 0.801068
1925 0.801022
1926 0.800975
1927 0.800927
1928 0.800881
1929 0.800835
1930 0.800787
1931 0.800741
1932 0.800694
1933 0.800647
1934 0.800601
1935 0.800554
1936 0.800507
1937 0.800461
1938 0.800415
1939 0.800368
1940 0.800322
1941 0.800275
1942 0.800228
1943 0.800182
1944 0.800136
1945 0.800089
1946 0.800044
1947 0.799998
1948 0.799951
1949 0.799905
1950 0.799859
1951 0.799813
1952 0.799767
1953 0.799721
1954 0.799675
1955 0.799629
1956 0.799583
1957 0.799537
1958 0.799491
1959 0.799446
1960 0.799399
1961 0.799354
1962 0.799309
1963 0.799262
1964 0.799217
1965 0.799172
1966 0.799126
1967 0.79908
1968 0.799035
1969 0.798989
1970 0.798944
1971 0.798899
1972 0.798853
1973 0.798808
1974 0.798763
1975 0.798717
1976 0.798672
1977 0.798627
1978 0.798581
1979 0.798537
1980 0.798492
1981 0.798446
1982 0.798401
1983 0.798357
1984 0.798311
1985 0.798267
1986 0.798222
1987 0.798176
1988 0.798132
1989 0.798087
1990 0.798042
1991 0.797998
1992 0.797953
1993 0.797908
1994 0.797864
1995 0.797819
1996 0.797774
1997 0.79773
1998 0.797686
1999 0.79764
2000 0.797596
2001 0.797552
2002 0.797507
2003 0.797463
2004 0.797419
2005 0.797374
2006 0.797331
2007 0.797287
2008 0.797242
2009 0.797198
2010 0.797154
2011 0.797109
2012 0.797066
2013 0.797022
2014 0.796977
2015 0.796934
2016 0.79689
2017 0.796846
2018 0.796802
2019 0.796759
2020 0.796714
2021 0.796671
2022 0.796627
2023 0.796583
2024 0.79654
2025 0.796496
2026 0.796452
2027 0.796409
2028 0.796366
2029 0.796321
2030 0.796278
2031 0.796235
2032 0.796191
2033 0.796148
2034 0.796105
2035 0.796061
2036 0.796018
2037 0.795975
2038 0.795931
2039 0.795889
2040 0.795846
2041 0.795802
2042 0.795759
2043 0.795716
2044 0.795673
2045 0.79563
2046 0.795587
2047 0.795544
2048 0.795501
2049 0.795459
2050 0.795415
2051 0.795373
2052 0.79533
2053 0.795287
2054 0.795244
2055 0.795202
2056 0.795159
2057 0.795116
2058 0.795074
2059 0.795031
2060 0.794989
2061 0.794947
2062 0.794903
2063 0.794861
2064 0.794819
2065 0.794776
2066 0.794734
2067 0.794692
2068 0.794649
2069 0.794607
2070 0.794566
2071 0.794523
2072 0.794481
2073 0.794439
2074 0.794398
2075 0.794357
2076 0.794314
2077 0.794273
2078 0.794231
2079 0.79419
2080 0.794149
2081 0.794106
2082 0.794065
2083 0.794023
2084 0.793982
2085 0.79394
2086 0.793899
2087 0.793858
2088 0.793815
2089 0.793773
2090 0.793731
2091 0.793689
2092 0.793647
2093 0.793606
2094 0.793564
2095 0.793523
2096 0.793481
2097 0.793438
2098 0.793395
2099 0.793353
2100 0.793311
2101 0.793269
2102 0.793227
2103 0.793185
2104 0.793143
2105 0.793101
2106 0.79306
2107 0.793019
2108 0.792977
2109 0.792936
2110 0.792895
2111 0.792853
2112 0.792812
2113 0.792771
2114 0.79273
2115 0.792688
2116 0.792647
2117 0.792605
2118 0.792564
2119 0.792523
2120 0.792482
2121 0.79244
2122 0.792399
2123 0.792357
2124 0.792316
2125 0.792275
2126 0.792234
2127 0.792192
2128 0.792152
2129 0.79211
2130 0.792069
2131 0.792028
2132 0.791988
2133 0.791947
2134 0.791906
2135 0.791865
2136 0.791825
2137 0.791784
2138 0.791744
2139 0.791703
2140 0.791663
2141 0.791622
2142 0.791582
2143 0.791542
2144 0.791502
2145 0.791462
2146 0.791422
2147 0.791382
2148 0.791342
2149 0.791302
2150 0.791262
2151 0.791223
2152 0.791183
2153 0.791143
2154 0.791104
2155 0.791064
2156 0.791025
2157 0.790985
2158 0.790946
2159 0.790907
2160 0.790868
2161 0.790829
2162 0.79079
2163 0.790751
2164 0.790712
2165 0.790674
2166 0.790635
2167 0.790595
2168 0.790554
2169 0.790513
2170 0.790471
2171 0.79043
2172 0.790389
2173 0.790347
2174 0.790304
2175 0.790262
2176 0.79022
2177 0.790179
2178 0.790137
2179 0.790096
2180 0.790055
2181 0.790016
2182 0.789976
2183 0.789936
2184 0.789896
2185 0.789856
2186 0.789815
2187 0.789776
2188 0.789737
2189 0.789697
2190 0.789655
2191 0.789614
2192 0.789573
2193 0.789532
2194 0.789491
2195 0.78945
2196 0.789408
2197 0.789368
2198 0.78933
2199 0.789289
2200 0.789249
2201 0.78921
2202 0.789172
2203 0.789133
2204 0.789094
2205 0.789058
2206 0.78902
2207 0.788984
2208 0.788948
2209 0.788912
2210 0.788876
2211 0.78884
2212 0.788803
2213 0.788766
2214 0.788731
2215 0.788695
2216 0.788658
2217 0.788621
2218 0.788584
2219 0.788548
2220 0.788511
2221 0.788473
2222 0.788435
2223 0.788396
2224 0.788359
2225 0.788321
2226 0.788282
2227 0.788242
2228 0.788202
2229 0.788161
2230 0.78812
2231 0.78808
2232 0.788041
2233 0.788002
2234 0.787963
2235 0.787923
2236 0.787883
2237 0.787843
2238 0.787803
2239 0.787765
2240 0.787727
2241 0.787689
2242 0.78765
2243 0.787611
2244 0.787572
2245 0.787533
2246 0.787495
2247 0.787455
2248 0.787416
2249 0.787377
2250 0.787338
2251 0.787299
2252 0.787261
2253 0.787224
2254 0.787186
2255 0.787149
2256 0.787112
2257 0.787074
2258 0.787036
2259 0.786998
2260 0.786962
2261 0.786925
2262 0.786887