    1.9149          0
   5.76699          0
   9.66391          0
   13.6062          0
   17.5943          0
   21.6289          0
   25.7104          0
   29.8394          0
   34.0165          0
   38.2422          0
   42.5171          0
   46.8417          0
   51.2166          0
   55.6425          0
   60.1199          0
   64.6493          0
   69.2315          0
    73.867          0
   78.5565          0
   83.3005          0
   88.0998          0
   92.9549          0
   97.8665          0
   102.835          0
   107.862          0
   112.947          0
   118.091          0
   123.295          0
    128.56          0
   133.886          0
   139.274          0
   144.725          0
   150.239          0
   155.817          0
    161.46          0
   167.169          0
   172.945          0
   178.787          0
   184.698          0
   190.677          0
   196.726          0
   202.845          0
   209.036          0
   215.298          0
   221.634          0
   228.043          0
   234.527          0
   241.086          0
   247.721          0
   254.434          0
   261.225          0
   268.095          0
   275.045          0
   282.076          0
   289.188          0
   296.384          0
   303.663          0
   311.026          0
   318.476          0
   326.012          0
   333.636          0
   341.349          0
   349.151          0
   357.044          0
   365.029          0
   373.107          0
   381.279          0
   389.547          0
    397.91          0
   406.371          0
    414.93          0
   423.589          0
   432.348          0
   441.209          0
   450.174          0
   459.243          0
   468.417          0
   477.699          0
   487.088          0
   496.586          0
   506.196          0
   515.916          0
    525.75          0
   535.699          0
   545.763          0
   555.945          0
   566.244          0
   576.664          0
   587.205          0
   597.869          0
   608.657          0
    619.57          0
    630.61          0
   641.779          0
   653.078          0
   664.508          0
   676.072          0
    687.77          0
   699.604          0
   711.575          0
   723.687          0
   735.939          0
   748.333          0
   760.872          0
   773.557          0
   786.389          0
   799.371          0
   812.504          0
    825.79          0
    839.23          0
   852.827          0
   866.582          0
   880.497          0
   894.574          0
   908.815          0
   923.221          0
   937.795          0
   952.539          0
   967.455          0
   982.544          0
   997.808          0
   1013.25          0
   1028.87          0
   1044.68          0
   1060.66          0
   1076.84          0
    1093.2          0
   1109.75          0
    1126.5          0
   1143.44          0
   1160.57          0
   1177.91          0
   1195.45          0
   1213.19          0
   1231.14          0
    1249.3          0
   1267.67          0
   1286.25          0
   1305.05          0
   1324.07          0
   1343.31          0
   1362.77          0
   1382.46          0
   1402.38          0
   1422.53          0
   1442.91          0
   1463.54          0
    1484.4          0
    1505.5          0
   1526.86          0
   1548.45          0
   1570.31          0
   1592.41          0
   1614.77          0
    1637.4          0
   1660.28          0
   1683.43          0
   1706.85          0
   1730.55          0
   1754.52          0
   1778.77          0
    1803.3          0
   1828.12          0
   1853.22          0
   1878.62          0
   1904.31          0
    1930.3          0
    1956.6          0
    1983.2          0
   2010.11          0
   2037.33          0
   2064.87          0
   2092.73          0
   2120.92          0
   2149.43          0
   2178.28          0
   2207.46          0
   2236.98          0
   2266.84          0
   2297.05          0
   2327.61          0
   2358.53          0
   2389.81          0
   2421.45          0
   2453.46          0
   2485.85          0
   2518.61          0
   2551.75          0
   2585.28          0
   2619.19          0
   2653.51          0
   2688.22          0
   2723.33          0
   2758.86          0
   2794.79          0
   2831.15          0
   2867.93          0
   2905.13          0
   2942.77          0
   2980.85          0
