/*--------------------------------*- C++ -*----------------------------------*\
| =========                 |                                                 |
| \\      /  F ield         | OpenFOAM: The Open Source CFD Toolbox           |
|  \\    /   O peration     | Version:  dev                                   |
|   \\  /    A nd           | Web:      www.OpenFOAM.org                      |
|    \\/     M anipulation  |                                                 |
\*---------------------------------------------------------------------------*/
FoamFile
{
    version     2.0;
    format      ascii;
    class       volVectorField;
    object      U;
}
// * * * * * * * * * * * * * * * * * * * * * * * * * * * * * * * * * * * * * //

dimensions      [0 1 -1 0 0 0 0];

internalField   uniform (0 0 0);

boundaryField
{
    ground
    {
        type            noSlip;
        value           uniform (0 0 0);
    }

    top
    {
        type            slip;
        value           uniform (0 0 0);
    }

    centre
    {
        type            slip;
        value           uniform (0 0 0);
    }

    edge
    {
        type            slip;
        value           uniform (0 0 0);
    }
    front
    {
        type            cyclic;
    }
    back
    {
        type            cyclic;
        value           uniform (0 0 0);
    }
}

// ************************************************************************* //
