1 0.978333
2 1.22169
3 1.47745
4 1.72687
5 1.94179
6 2.10541
7 2.20461
8 2.23623
9 2.2118
10 2.14925
11 2.06074
12 1.96181
13 1.86317
14 1.7749
15 1.69391
16 1.62193
17 1.55976
18 1.50757
19 1.46513
20 1.43192
21 1.40603
22 1.3869
23 1.37309
24 1.36346
25 1.3569
26 1.35249
27 1.35074
28 1.35004
29 1.34942
30 1.34881
31 1.34797
32 1.34681
33 1.3453
34 1.34344
35 1.34129
36 1.3389
37 1.33627
38 1.33345
39 1.33052
40 1.32748
41 1.32434
42 1.32107
43 1.31755
44 1.31401
45 1.31055
46 1.30716
47 1.30382
48 1.30049
49 1.29709
50 1.29365
51 1.29031
52 1.28706
53 1.28389
54 1.28074
55 1.27756
56 1.27432
57 1.27118
58 1.26816
59 1.26522
60 1.26231
61 1.25937
62 1.25634
63 1.25332
64 1.25049
65 1.24778
66 1.24512
67 1.24245
68 1.23972
69 1.23692
70 1.23421
71 1.23167
72 1.22923
73 1.22683
74 1.22441
75 1.22194
76 1.21946
77 1.21708
78 1.21482
79 1.21264
80 1.21049
81 1.20832
82 1.20615
83 1.20398
84 1.20189
85 1.19987
86 1.19791
87 1.19597
88 1.19404
89 1.19211
90 1.19019
91 1.18832
92 1.1865
93 1.18473
94 1.18297
95 1.18123
96 1.1795
97 1.17778
98 1.1761
99 1.17444
100 1.17282
101 1.17122
102 1.16964
103 1.16807
104 1.16652
105 1.16499
106 1.16348
107 1.162
108 1.16054
109 1.1591
110 1.15767
111 1.15626
112 1.15487
113 1.15349
114 1.15214
115 1.15081
116 1.14949
117 1.14819
118 1.14691
119 1.14564
120 1.14439
121 1.14316
122 1.14194
123 1.14074
124 1.13955
125 1.13838
126 1.13721
127 1.13606
128 1.13492
129 1.13379
130 1.13266
131 1.13155
132 1.13044
133 1.12934
134 1.12825
135 1.12716
136 1.12608
137 1.12501
138 1.12394
139 1.12287
140 1.1218
141 1.12074
142 1.11968
143 1.11863
144 1.11757
145 1.11651
146 1.11545
147 1.11438
148 1.11331
149 1.11223
150 1.11114
151 1.11005
152 1.10896
153 1.10789
154 1.10686
155 1.10585
156 1.10487
157 1.1039
158 1.10296
159 1.10202
160 1.1011
161 1.10019
162 1.09928
163 1.09838
164 1.09749
165 1.09661
166 1.09573
167 1.09485
168 1.09398
169 1.09311
170 1.09225
171 1.09139
172 1.09054
173 1.08969
174 1.08885
175 1.08801
176 1.08719
177 1.08635
178 1.08555
179 1.08471
180 1.084
181 1.08321
182 1.08248
183 1.08166
184 1.08098
185 1.08019
186 1.07943
187 1.07858
188 1.07798
189 1.07725
190 1.0764
191 1.07573
192 1.07494
193 1.07428
194 1.0735
195 1.07284
196 1.07204
197 1.07148
198 1.07076
199 1.06994
200 1.06928
201 1.06849
202 1.0681
203 1.06747
204 1.06667
205 1.06611
206 1.06538
207 1.06459
208 1.06384
209 1.06307
210 1.06246
211 1.06172
212 1.06156
213 1.061
214 1.06056
215 1.06001
216 1.05954
217 1.05901
218 1.05845
219 1.05792
220 1.05734
221 1.05676
222 1.05619
223 1.05559
224 1.05498
225 1.05438
226 1.0538
227 1.05319
228 1.05257
229 1.05198
230 1.0514
231 1.05081
232 1.0502
233 1.04958
234 1.04901
235 1.04844
236 1.04786
237 1.04726
238 1.04667
239 1.04611
240 1.04556
241 1.04499
242 1.04442
243 1.04383
244 1.04325
245 1.04266
246 1.04212
247 1.04159
248 1.04104
249 1.04049
250 1.03993
251 1.03936
252 1.0388
253 1.03823
254 1.03767
255 1.03711
256 1.03656
257 1.03601
258 1.03546
259 1.03492
260 1.03438
261 1.03385
262 1.03332
263 1.0328
264 1.03228
265 1.03176
266 1.03124
267 1.03073
268 1.03022
269 1.02971
270 1.0292
271 1.0287
272 1.0282
273 1.0277
274 1.0272
275 1.0267
276 1.02621
277 1.02572
278 1.02523
279 1.02474
280 1.02425
281 1.02377
282 1.02329
283 1.02281
284 1.02233
285 1.02185
286 1.02138
287 1.02091
288 1.02044
289 1.01997
290 1.0195
291 1.01904
292 1.01858
293 1.01812
294 1.01766
295 1.01721
296 1.01675
297 1.0163
298 1.01585
299 1.01541
300 1.01496
301 1.01452
302 1.01408
303 1.01364
304 1.0132
305 1.01276
306 1.01233
307 1.0119
308 1.01147
309 1.01104
310 1.01061
311 1.01019
312 1.00977
313 1.00935
314 1.00893
315 1.00851
316 1.00809
317 1.00768
318 1.00727
319 1.00686
320 1.00645
321 1.00604
322 1.00564
323 1.00524
324 1.00483
325 1.00443
326 1.00404
327 1.00364
328 1.00325
329 1.00285
330 1.00246
331 1.00207
332 1.00168
333 1.00129
334 1.00091
335 1.00052
336 1.00014
337 0.99976
338 0.99938
339 0.999002
340 0.998625
341 0.99825
342 0.997876
343 0.997503
344 0.997132
345 0.996762
346 0.996394
347 0.996027
348 0.995661
349 0.995297
350 0.994934
351 0.994572
352 0.994212
353 0.993853
354 0.993495
355 0.993138
356 0.992783
357 0.992429
358 0.992076
359 0.991725
360 0.991374
361 0.991025
362 0.990677
363 0.990331
364 0.989985
365 0.989641
366 0.989298
367 0.988956
368 0.988615
369 0.988275
370 0.987937
371 0.987599
372 0.987263
373 0.986928
374 0.986594
375 0.986261
376 0.985929
377 0.985598
378 0.985268
379 0.98494
380 0.984612
381 0.984285
382 0.98396
383 0.983635
384 0.983312
385 0.982989
386 0.982668
387 0.982347
388 0.982028
389 0.981709
390 0.981392
391 0.981075
392 0.98076
393 0.980445
394 0.980132
395 0.979819
396 0.979507
397 0.979197
398 0.978887
399 0.978578
400 0.97827
401 0.977963
402 0.977657
403 0.977352
404 0.977047
405 0.976744
406 0.976441
407 0.97614
408 0.975839
409 0.975539
410 0.97524
411 0.974942
412 0.974645
413 0.974349
414 0.974053
415 0.973759
416 0.973465
417 0.973172
418 0.972879
419 0.972589
420 0.972298
421 0.97201
422 0.97172
423 0.971437
424 0.97115
425 0.970877
426 0.970598
427 0.970332
428 0.970058
429 0.969794
430 0.969521
431 0.969258
432 0.968986
433 0.968723
434 0.968449
435 0.968185
436 0.967911
437 0.967646
438 0.967372
439 0.967107
440 0.966832
441 0.966568
442 0.966293
443 0.966029
444 0.965755
445 0.965492
446 0.96522
447 0.964958
448 0.964687
449 0.964427
450 0.964157
451 0.963898
452 0.96363
453 0.963373
454 0.963106
455 0.962851
456 0.962585
457 0.962332
458 0.962068
459 0.961816
460 0.961554
461 0.961303
462 0.961042
463 0.960793
464 0.960534
465 0.960286
466 0.960028
467 0.959782
468 0.959526
469 0.959281
470 0.959026
471 0.958783
472 0.958529
473 0.958287
474 0.958034
475 0.957794
476 0.957543
477 0.957303
478 0.957053
479 0.956816
480 0.956567
481 0.95633
482 0.956083
483 0.955848
484 0.955601
485 0.955367
486 0.955122
487 0.954889
488 0.954646
489 0.954414
490 0.954171
491 0.953941
492 0.953699
493 0.95347
494 0.95323
495 0.953002
496 0.952763
497 0.952536
498 0.952298
499 0.952072
500 0.951835
501 0.951611
502 0.951375
503 0.951152
504 0.950917
505 0.950694
506 0.95046
507 0.950239
508 0.950006
509 0.949786
510 0.949555
511 0.949336
512 0.949105
513 0.948887
514 0.948657
515 0.94844
516 0.948211
517 0.947995
518 0.947767
519 0.947552
520 0.947325
521 0.947111
522 0.946886
523 0.946673
524 0.946448
525 0.946236
526 0.946011
527 0.9458
528 0.945577
529 0.945367
530 0.945145
531 0.944936
532 0.944715
533 0.944506
534 0.944286
535 0.944079
536 0.943859
537 0.943653
538 0.943434
539 0.943229
540 0.943011
541 0.942807
542 0.94259
543 0.942386
544 0.94217
545 0.941967
546 0.941752
547 0.941551
548 0.941336
549 0.941135
550 0.940922
551 0.940722
552 0.94051
553 0.94031
554 0.940099
555 0.9399
556 0.939689
557 0.939492
558 0.939282
559 0.939085
560 0.938876
561 0.93868
562 0.938472
563 0.938277
564 0.938069
565 0.937875
566 0.937668
567 0.937475
568 0.937269
569 0.937076
570 0.93687
571 0.93668
572 0.936488
573 0.936291
574 0.936082
575 0.935863
576 0.93566
577 0.935449
578 0.935261
579 0.935072
580 0.93488
581 0.934676
582 0.934463
583 0.934264
584 0.934057
585 0.933882
586 0.933701
587 0.933518
588 0.933321
589 0.933115
590 0.932917
591 0.932709
592 0.932544
593 0.932369
594 0.93219
595 0.932011
596 0.931815
597 0.93163
598 0.931434
599 0.931266
600 0.931091
601 0.930911
602 0.930732
603 0.930534
604 0.930349
605 0.930167
606 0.929982
607 0.929793
608 0.929607
609 0.929406
610 0.92922
611 0.929039
612 0.928857
613 0.928671
614 0.928488
615 0.928292
616 0.928111
617 0.927935
618 0.927756
619 0.927574
620 0.927396
621 0.927203
622 0.927026
623 0.926852
624 0.926677
625 0.926497
626 0.926313
627 0.926133
628 0.925942
629 0.925767
630 0.925595
631 0.925422
632 0.925244
633 0.925062
634 0.924886
635 0.924697
636 0.924525
637 0.924356
638 0.924185
639 0.92401
640 0.923831
641 0.923647
642 0.923469
643 0.923281
644 0.923109
645 0.922942
646 0.922774
647 0.922601
648 0.922425
649 0.922244
650 0.922059
651 0.921882
652 0.921696
653 0.921529
654 0.921365
655 0.9212
656 0.921032
657 0.92086
658 0.920683
659 0.920503
660 0.92032
661 0.920145
662 0.919962
663 0.919799
664 0.919639
665 0.919479
666 0.919315
667 0.919147
668 0.918975
669 0.918799
670 0.91862
671 0.918439
672 0.918266
673 0.918098
674 0.917929
675 0.917759
676 0.917587
677 0.917413
678 0.917238
679 0.917072
680 0.91691
681 0.916747
682 0.916583
683 0.916416
684 0.916248
685 0.916077
686 0.915904
687 0.915741
688 0.915582
689 0.915421
690 0.91526
691 0.915096
692 0.91493
693 0.914762
694 0.914592
695 0.914421
696 0.914259
697 0.914102
698 0.913944
699 0.913785
700 0.913624
701 0.913461
702 0.913296
703 0.91313
704 0.912962
705 0.912793
706 0.912624
707 0.912465
708 0.912311
709 0.912156
710 0.912001
711 0.911844
712 0.911685
713 0.911525
714 0.911363
715 0.911199
716 0.911035
717 0.91087
718 0.910705
719 0.91054
720 0.910375
721 0.910211
722 0.910057
723 0.909908
724 0.90976
725 0.909612
726 0.909461
727 0.909309
728 0.909156
729 0.909
730 0.908844
731 0.908686
732 0.908528
733 0.90837
734 0.908212
735 0.908055
736 0.907899
737 0.907743
738 0.907589
739 0.907436
740 0.907284
741 0.907133
742 0.906983
743 0.906834
744 0.906685
745 0.906537
746 0.906389
747 0.906241
748 0.906094
749 0.905947
750 0.9058
751 0.905653
752 0.905507
753 0.90536
754 0.905214
755 0.905067
756 0.904921
757 0.904775
758 0.904629
759 0.904483
760 0.904337
761 0.904191
762 0.904046
763 0.903901
764 0.903756
765 0.903611
766 0.903466
767 0.903322
768 0.903178
769 0.903033
770 0.90289
771 0.902746
772 0.902603
773 0.902459
774 0.902317
775 0.902174
776 0.902032
777 0.901889
778 0.901748
779 0.901606
780 0.901465
781 0.901323
782 0.901183
783 0.901042
784 0.900901
785 0.900761
786 0.900621
787 0.900481
788 0.900342
789 0.900203
790 0.900064
791 0.899925
792 0.899787
793 0.899648
794 0.89951
795 0.899372
796 0.899235
797 0.899098
798 0.898961
799 0.898824
800 0.898687
801 0.898551
802 0.898415
803 0.898279
804 0.898144
805 0.898008
806 0.897873
807 0.897738
808 0.897604
809 0.897469
810 0.897335
811 0.897201
812 0.897067
813 0.896933
814 0.8968
815 0.896667
816 0.896535
817 0.896402
818 0.89627
819 0.896137
820 0.896006
821 0.895874
822 0.895743
823 0.895611
824 0.895481
825 0.89535
826 0.89522
827 0.895089
828 0.894959
829 0.894829
830 0.8947
831 0.89457
832 0.894441
833 0.894312
834 0.894184
835 0.894055
836 0.893927
837 0.893799
838 0.893671
839 0.893544
840 0.893417
841 0.893289
842 0.893162
843 0.893036
844 0.892909
845 0.892783
846 0.892657
847 0.892531
848 0.892406
849 0.89228
850 0.892155
851 0.89203
852 0.891905
853 0.891781
854 0.891656
855 0.891532
856 0.891408
857 0.891284
858 0.891161
859 0.891038
860 0.890915
861 0.890792
862 0.890669
863 0.890547
864 0.890425
865 0.890302
866 0.890181
867 0.890059
868 0.889938
869 0.889816
870 0.889696
871 0.889575
872 0.889454
873 0.889334
874 0.889214
875 0.889093
876 0.888974
877 0.888854
878 0.888735
879 0.888615
880 0.888497
881 0.888377
882 0.888259
883 0.88814
884 0.888022
885 0.887904
886 0.887786
887 0.887668
888 0.887551
889 0.887434
890 0.887317
891 0.8872
892 0.887083
893 0.886966
894 0.88685
895 0.886734
896 0.886618
897 0.886502
898 0.886387
899 0.886271
900 0.886156
901 0.886041
902 0.885926
903 0.885811
904 0.885697
905 0.885583
906 0.885469
907 0.885355
908 0.885241
909 0.885127
910 0.885014
911 0.884901
912 0.884788
913 0.884675
914 0.884563
915 0.88445
916 0.884339
917 0.884226
918 0.884115
919 0.884003
920 0.883892
921 0.883781
922 0.88367
923 0.883559
924 0.883449
925 0.883339
926 0.883229
927 0.883119
928 0.88301
929 0.8829
930 0.882791
931 0.882682
932 0.882574
933 0.882465
934 0.882357
935 0.882248
936 0.88214
937 0.882032
938 0.881924
939 0.881816
940 0.881709
941 0.881601
942 0.881494
943 0.881387
944 0.88128
945 0.881172
946 0.881066
947 0.880959
948 0.880852
949 0.880745
950 0.880639
951 0.880533
952 0.880427
953 0.88032
954 0.880214
955 0.880109
956 0.880003
957 0.879897
958 0.879792
959 0.879687
960 0.879582
961 0.879477
962 0.879372
963 0.879267
964 0.879163
965 0.879058
966 0.878954
967 0.87885
968 0.878746
969 0.878642
970 0.878539
971 0.878435
972 0.878332
973 0.878229
974 0.878126
975 0.878023
976 0.87792
977 0.877818
978 0.877715
979 0.877613
980 0.877511
981 0.877409
982 0.877307
983 0.877205
984 0.877104
985 0.877002
986 0.876901
987 0.8768
988 0.876699
989 0.876598
990 0.876497
991 0.876397
992 0.876296
993 0.876196
994 0.876095
995 0.875992
996 0.875887
997 0.87578
998 0.875674
999 0.875569
1000 0.875465
1001 0.875362
1002 0.87526
1003 0.875157
1004 0.875053
1005 0.874948
1006 0.874845
1007 0.874743
1008 0.874643
1009 0.874544
1010 0.874444
1011 0.874342
1012 0.87424
1013 0.87414
1014 0.874041
1015 0.873942
1016 0.873843
1017 0.873742
1018 0.873642
1019 0.873544
1020 0.873446
1021 0.873347
1022 0.873247
1023 0.873147
1024 0.873049
1025 0.872952
1026 0.872855
1027 0.872756
1028 0.872657
1029 0.87256
1030 0.872465
1031 0.872369
1032 0.872274
1033 0.872177
1034 0.872081
1035 0.871985
1036 0.871889
1037 0.871792
1038 0.871695
1039 0.871598
1040 0.871501
1041 0.871403
1042 0.871306
1043 0.87121
1044 0.871114
1045 0.871017
1046 0.870921
1047 0.870826
1048 0.87073
1049 0.870633
1050 0.870538
1051 0.870443
1052 0.870346
1053 0.87025
1054 0.870155
1055 0.870059
1056 0.869964
1057 0.86987
1058 0.869775
1059 0.86968
1060 0.869586
1061 0.869492
1062 0.869398
1063 0.869304
1064 0.869211
1065 0.869118
1066 0.869025
1067 0.868932
1068 0.86884
1069 0.868747
1070 0.868655
1071 0.868563
1072 0.868471
1073 0.868379
1074 0.868287
1075 0.868196
1076 0.868104
1077 0.868012
1078 0.867921
1079 0.86783
1080 0.867738
1081 0.867647
1082 0.867556
1083 0.867464
1084 0.867372
1085 0.86728
1086 0.867188
1087 0.867096
1088 0.867005
1089 0.866914
1090 0.866823
1091 0.866732
1092 0.866642
1093 0.866551
1094 0.866461
1095 0.866371
1096 0.86628
1097 0.86619
1098 0.866099
1099 0.866009
1100 0.865919
1101 0.86583
1102 0.865741
1103 0.865652
1104 0.865563
1105 0.865474
1106 0.865385
1107 0.865297
1108 0.865208
1109 0.865119
1110 0.865031
1111 0.864943
1112 0.864854
1113 0.864764
1114 0.864679
1115 0.864594
1116 0.864509
1117 0.864424
1118 0.864338
1119 0.864255
1120 0.864173
1121 0.864094
1122 0.864014
1123 0.863934
1124 0.863852
1125 0.863768
1126 0.863686
1127 0.863604
1128 0.863524
1129 0.863443
1130 0.863362
1131 0.863278
1132 0.863191
1133 0.863108
1134 0.863023
1135 0.862941
1136 0.862858
1137 0.862774
1138 0.862688
1139 0.8626
1140 0.862515
1141 0.862429
1142 0.862346
1143 0.862263
1144 0.862182
1145 0.8621
1146 0.862018
1147 0.861933
1148 0.861846
1149 0.861762
1150 0.861677
1151 0.861594
1152 0.861511
1153 0.86143
1154 0.861349
1155 0.861266
1156 0.861182
1157 0.861095
1158 0.86101
1159 0.860925
1160 0.860842
1161 0.86076
1162 0.860679
1163 0.860598
1164 0.860516
1165 0.860432
1166 0.860345
1167 0.860261
1168 0.860177
1169 0.860095
1170 0.860013
1171 0.859933
1172 0.859852
1173 0.859771
1174 0.859688
1175 0.859602
1176 0.859519
1177 0.859436
1178 0.859355
1179 0.859274
1180 0.859195
1181 0.859115
1182 0.859035
1183 0.858953
1184 0.858868
1185 0.858786
1186 0.858703
1187 0.858623
1188 0.858543
1189 0.858465
1190 0.858386
1191 0.858307
1192 0.858226
1193 0.858142
1194 0.858061
1195 0.857979
1196 0.8579
1197 0.85782
1198 0.857739
1199 0.857657
1200 0.857572
1201 0.857491
1202 0.85741
1203 0.857331
1204 0.857252
1205 0.857172
1206 0.857091
1207 0.857008
1208 0.856928
1209 0.856848
1210 0.856771
1211 0.856693
1212 0.856615
1213 0.856535
1214 0.856453
1215 0.856375
1216 0.856296
1217 0.85622
1218 0.856143
1219 0.856066
1220 0.855987
1221 0.855906
1222 0.855829
1223 0.85575
1224 0.855671
1225 0.85559
1226 0.855508
1227 0.855429
1228 0.85535
1229 0.855271
1230 0.85519
1231 0.855108
1232 0.855031
1233 0.854952
1234 0.854874
1235 0.854795
1236 0.854714
1237 0.854638
1238 0.854561
1239 0.854484
1240 0.854406
1241 0.854327
1242 0.854252
1243 0.854176
1244 0.854101
1245 0.854024
1246 0.853946
1247 0.853871
1248 0.853796
1249 0.853721
1250 0.853645
1251 0.853567
1252 0.853494
1253 0.853419
1254 0.853345
1255 0.853269
1256 0.853192
1257 0.853119
1258 0.853044
1259 0.85297
1260 0.852895
1261 0.852818
1262 0.852745
1263 0.852671
1264 0.852597
1265 0.852522
1266 0.852445
1267 0.852373
1268 0.852299
1269 0.852224
1270 0.852147
1271 0.852066
1272 0.851983
1273 0.851897
1274 0.851809
1275 0.851718
1276 0.851626
1277 0.851532
1278 0.851438
1279 0.851343
1280 0.851254
1281 0.851162
1282 0.85107
1283 0.850986
1284 0.850905
1285 0.850829
1286 0.850757
1287 0.850687
1288 0.850624
1289 0.850562
1290 0.850502
1291 0.850442
1292 0.850382
1293 0.850325
1294 0.850267
1295 0.850207
1296 0.850144
1297 0.850077
1298 0.850006
1299 0.849931
1300 0.849853
1301 0.849772
1302 0.849688
1303 0.849601
1304 0.849514
1305 0.849425
1306 0.849336
1307 0.849246
1308 0.849157
1309 0.849068
1310 0.848979
1311 0.848892
1312 0.848806
1313 0.84872
1314 0.848636
1315 0.848553
1316 0.848472
1317 0.848393
1318 0.848315
1319 0.848239
1320 0.848165
1321 0.848092
1322 0.84802
1323 0.847949
1324 0.847879
1325 0.847819
1326 0.847753
1327 0.847685
1328 0.847619
1329 0.847555
1330 0.847493
1331 0.847437
1332 0.847382
1333 0.847329
1334 0.847277
1335 0.847224
1336 0.847169
1337 0.847111
1338 0.847049
1339 0.846983
1340 0.846914
1341 0.846841
1342 0.846766
1343 0.846687
1344 0.846607
1345 0.846526
1346 0.846443
1347 0.84636
1348 0.846278
1349 0.846197
1350 0.846117
1351 0.846038
1352 0.84596
1353 0.845884
1354 0.845808
1355 0.845734
1356 0.84566
1357 0.845587
1358 0.845526
1359 0.845457
1360 0.845389
1361 0.845319
1362 0.845248
1363 0.845184
1364 0.845121
1365 0.845058
1366 0.844995
1367 0.844932
1368 0.844867
1369 0.844801
1370 0.844733
1371 0.844665
1372 0.844595
1373 0.844524
1374 0.844452
1375 0.844378
1376 0.844304
1377 0.844229
1378 0.844152
1379 0.844073
1380 0.84399
1381 0.843902
1382 0.843813
1383 0.843728
1384 0.843645
1385 0.843562
1386 0.843498
1387 0.843443
1388 0.843386
1389 0.843327
1390 0.843274
1391 0.843221
1392 0.843166
1393 0.843109
1394 0.84305
1395 0.842989
1396 0.842925
1397 0.842859
1398 0.842791
1399 0.842722
1400 0.842651
1401 0.842579
1402 0.842505
1403 0.842427
1404 0.842349
1405 0.842281
1406 0.842213
1407 0.842143
1408 0.842073
1409 0.842002
1410 0.841931
1411 0.841859
1412 0.841787
1413 0.841713
1414 0.841644
1415 0.841585
1416 0.84152
1417 0.841456
1418 0.841394
1419 0.841331
1420 0.841268
1421 0.841203
1422 0.841137
1423 0.84107
1424 0.841002
1425 0.840934
1426 0.840866
1427 0.840797
1428 0.840728
1429 0.840658
1430 0.840587
1431 0.840512
1432 0.840434
1433 0.84035
1434 0.840282
1435 0.840214
1436 0.840145
1437 0.84008
1438 0.840023
1439 0.839964
1440 0.839904
1441 0.839843
1442 0.839781
1443 0.839717
1444 0.839652
1445 0.839584
1446 0.83952
1447 0.839466
1448 0.839408
1449 0.839347
1450 0.839284
1451 0.839219
1452 0.839152
1453 0.839084
1454 0.839015
1455 0.838945
1456 0.838876
1457 0.838807
1458 0.838738
1459 0.838668
1460 0.838597
1461 0.838526
1462 0.838459
1463 0.838406
1464 0.838348
1465 0.838288
1466 0.838227
1467 0.838164
1468 0.838099
1469 0.838034
1470 0.837968
1471 0.837902
1472 0.837836
1473 0.83777
1474 0.837702
1475 0.837633
1476 0.837572
1477 0.83751
1478 0.837446
1479 0.837381
1480 0.837314
1481 0.837248
1482 0.837181
1483 0.837114
1484 0.837047
1485 0.836978
1486 0.836907
1487 0.836849
1488 0.836788
1489 0.836726
1490 0.836663
1491 0.8366
1492 0.836537
1493 0.83647
1494 0.836405
1495 0.836347
1496 0.836287
1497 0.836226
1498 0.836164
1499 0.836101
1500 0.836039
1501 0.835978
1502 0.835914
1503 0.835851
1504 0.835788
1505 0.835726
1506 0.835662
1507 0.835597
1508 0.835534
1509 0.835471
1510 0.835406
1511 0.835341
1512 0.835278
1513 0.835214
1514 0.83515
1515 0.835085
1516 0.835022
1517 0.834959
1518 0.834895
1519 0.83483
1520 0.834768
1521 0.834706
1522 0.834642
1523 0.834578
1524 0.834517
1525 0.834455
1526 0.834392
1527 0.834329
1528 0.834268
1529 0.834206
1530 0.834144
1531 0.834083
1532 0.834022
1533 0.83396
1534 0.833899
1535 0.833839
1536 0.833776
1537 0.833715
1538 0.833654
1539 0.833592
1540 0.833531
1541 0.83347
1542 0.833407
1543 0.833346
1544 0.833285
1545 0.833222
1546 0.833162
1547 0.8331
1548 0.833038
1549 0.832977
1550 0.832917
1551 0.832855
1552 0.832794
1553 0.832734
1554 0.832672
1555 0.832611
1556 0.832551
1557 0.83249
1558 0.83243
1559 0.832369
1560 0.832308
1561 0.832248
1562 0.832188
1563 0.832127
1564 0.832068
1565 0.832008
1566 0.831947
1567 0.831888
1568 0.831828
1569 0.831767
1570 0.831708
1571 0.831649
1572 0.831588
1573 0.831529
1574 0.831469
1575 0.831409
1576 0.83135
1577 0.831291
1578 0.83123
1579 0.831171
1580 0.831112
1581 0.831052
1582 0.830993
1583 0.830934
1584 0.830874
1585 0.830816
1586 0.830757
1587 0.830697
1588 0.830638
1589 0.830579
1590 0.830519
1591 0.830461
1592 0.830402
1593 0.830343
1594 0.830284
1595 0.830226
1596 0.830166
1597 0.830108
1598 0.830049
1599 0.82999
1600 0.829932
1601 0.829873
1602 0.829814
1603 0.829756
1604 0.829698
1605 0.829639
1606 0.829581
1607 0.829523
1608 0.829463
1609 0.829406
1610 0.829348
1611 0.829289
1612 0.829231
1613 0.829173
1614 0.829114
1615 0.829057
1616 0.828999
1617 0.82894
1618 0.828883
1619 0.828825
1620 0.828766
1621 0.828709
1622 0.828651
1623 0.828593
1624 0.828536
1625 0.828478
1626 0.82842
1627 0.828363
1628 0.828306
1629 0.828247
1630 0.82819
1631 0.828133
1632 0.828075
1633 0.828018
1634 0.827961
1635 0.827903
1636 0.827846
1637 0.82779
1638 0.827732
1639 0.827675
1640 0.827618
1641 0.82756
1642 0.827504
1643 0.827447
1644 0.82739
1645 0.827333
1646 0.827277
1647 0.827219
1648 0.827163
1649 0.827107
1650 0.827049
1651 0.826993
1652 0.826937
1653 0.826879
1654 0.826824
1655 0.826767
1656 0.82671
1657 0.826654
1658 0.826598
1659 0.826541
1660 0.826486
1661 0.82643
1662 0.826373
1663 0.826315
1664 0.82626
1665 0.826205
1666 0.826148
1667 0.826093
1668 0.826039
1669 0.825982
1670 0.825928
1671 0.825873
1672 0.825817
1673 0.825762
1674 0.825707
1675 0.825651
1676 0.825596
1677 0.825541
1678 0.825485
1679 0.82543
1680 0.825375
1681 0.825319
1682 0.825264
1683 0.825209
1684 0.825152
1685 0.825097
1686 0.825042
1687 0.824986
1688 0.824932
1689 0.824877
1690 0.824821
1691 0.824766
1692 0.824711
1693 0.824656
1694 0.824601
1695 0.824547
1696 0.824491
1697 0.824437
1698 0.824382
1699 0.824327
1700 0.824273
1701 0.824219
1702 0.824163
1703 0.824109
1704 0.824055
1705 0.824
1706 0.823946
1707 0.823892
1708 0.823837
1709 0.823784
1710 0.82373
1711 0.823675
1712 0.823622
1713 0.823568
1714 0.823513
1715 0.82346
1716 0.823406
1717 0.823352
1718 0.823298
1719 0.823245
1720 0.82319
1721 0.823137
1722 0.823084
1723 0.82303
1724 0.822977
1725 0.822924
1726 0.822869
1727 0.822817
1728 0.822764
1729 0.822709
1730 0.822657
1731 0.822604
1732 0.82255
1733 0.822497
1734 0.822444
1735 0.82239
1736 0.822338
1737 0.822285
1738 0.822232
1739 0.822179
1740 0.822127
1741 0.822073
1742 0.822021
1743 0.821969
1744 0.821915
1745 0.821863
1746 0.821811
1747 0.821757
1748 0.821705
1749 0.821653
1750 0.8216
1751 0.821548
1752 0.821496
1753 0.821443
1754 0.821391
1755 0.821339
1756 0.821286
1757 0.821235
1758 0.821183
1759 0.82113
1760 0.821079
1761 0.821027
1762 0.820974
1763 0.820923
1764 0.820871
1765 0.820818
1766 0.820767
1767 0.820716
1768 0.820663
1769 0.820612
1770 0.820561
1771 0.820508
1772 0.820458
1773 0.820406
1774 0.820354
1775 0.820303
1776 0.820252
1777 0.8202
1778 0.820149
1779 0.820099
1780 0.820047
1781 0.819996
1782 0.819946
1783 0.819894
1784 0.819844
1785 0.819794
1786 0.819743
1787 0.819694
1788 0.819644
1789 0.819593
1790 0.819545
1791 0.819496
1792 0.819445
1793 0.819396
1794 0.819347
1795 0.819297
1796 0.819248
1797 0.819199
1798 0.819149
1799 0.8191
1800 0.819051
1801 0.819001
1802 0.818952
1803 0.818903
1804 0.818852
1805 0.818803
1806 0.818754
1807 0.818704
1808 0.818655
1809 0.818606
1810 0.818555
1811 0.818506
1812 0.818457
1813 0.818406
1814 0.818357
1815 0.818308
1816 0.81826
1817 0.818212
1818 0.818162
1819 0.818113
1820 0.818064
1821 0.818013
1822 0.817963
1823 0.817914
1824 0.817863
1825 0.817813
1826 0.817764
1827 0.817715
1828 0.817667
1829 0.817616
1830 0.817568
1831 0.817518
1832 0.817468
1833 0.817419
1834 0.81737
1835 0.817322
1836 0.817273
1837 0.817223
1838 0.817175
1839 0.817126
1840 0.817078
1841 0.81703
1842 0.81698
1843 0.816931
1844 0.816882
1845 0.816834
1846 0.816786
1847 0.816736
1848 0.816687
1849 0.816638
1850 0.81659
1851 0.816542
1852 0.816495
1853 0.816447
1854 0.816398
1855 0.816349
1856 0.8163
1857 0.816252
1858 0.816204
1859 0.816157
1860 0.816109
1861 0.81606
1862 0.816011
1863 0.815962
1864 0.815915
1865 0.815867
1866 0.81582
1867 0.815772
1868 0.815723
1869 0.815675
1870 0.815627
1871 0.81558
1872 0.815532
1873 0.815486
1874 0.815439
1875 0.81539
1876 0.815343
1877 0.815295
1878 0.815248
1879 0.815201
1880 0.815155
1881 0.815109
1882 0.81506
1883 0.815013
1884 0.814966
1885 0.81492
1886 0.814873
1887 0.814827
1888 0.814781
1889 0.814733
1890 0.814686
1891 0.814639
1892 0.814593
1893 0.814547
1894 0.814501
1895 0.814455
1896 0.814407
1897 0.814361
1898 0.814314
1899 0.814268
1900 0.814222
1901 0.814177
1902 0.814131
1903 0.814086
1904 0.81404
1905 0.813995
1906 0.81395
1907 0.813904
1908 0.813858
1909 0.813812
1910 0.813766
1911 0.81372
1912 0.813674
1913 0.813627
1914 0.813581
1915 0.813534
1916 0.813488
1917 0.813441
1918 0.813395
1919 0.813348
1920 0.813302
1921 0.813255
1922 0.813209
1923 0.813163
1924 0.813116
1925 0.813071
1926 0.813024
1927 0.812979
1928 0.812932
1929 0.812887
1930 0.812841
1931 0.812796
1932 0.81275
1933 0.812705
1934 0.812659
1935 0.812614
1936 0.812568
1937 0.812523
1938 0.812478
1939 0.812433
1940 0.812388
1941 0.812343
1942 0.812298
1943 0.812253
1944 0.812208
1945 0.812164
1946 0.812119
1947 0.812074
1948 0.812029
1949 0.811985
1950 0.81194
1951 0.811896
1952 0.811851
1953 0.811807
1954 0.811762
1955 0.811718
1956 0.811673
1957 0.811629
1958 0.811584
1959 0.81154
1960 0.811496
1961 0.811452
1962 0.811407
1963 0.811363
1964 0.811319
1965 0.811275
1966 0.81123
1967 0.811187
1968 0.811142
1969 0.811098
1970 0.811054
1971 0.81101
1972 0.810966
1973 0.810922
1974 0.810878
1975 0.810835
1976 0.81079
1977 0.810747
1978 0.810703
1979 0.810659
1980 0.810615
1981 0.810572
1982 0.810528
1983 0.810484
1984 0.81044
1985 0.810397
1986 0.810353
1987 0.81031
1988 0.810266
1989 0.810222
1990 0.810179
1991 0.810136
1992 0.810092
1993 0.810049
1994 0.810005
1995 0.809962
1996 0.809918
1997 0.809875
1998 0.809832
1999 0.809789
2000 0.809745
2001 0.809702
2002 0.809659
2003 0.809616
2004 0.809573
2005 0.80953
2006 0.809486
2007 0.809444
2008 0.8094
2009 0.809358
2010 0.809314
2011 0.809272
2012 0.809228
2013 0.809186
2014 0.809143
2015 0.8091
2016 0.809057
2017 0.809014
2018 0.808971
2019 0.808929
2020 0.808886
2021 0.808844
2022 0.808801
2023 0.808758
2024 0.808716
2025 0.808673
2026 0.80863
2027 0.808588
2028 0.808545
2029 0.808503
2030 0.808461
2031 0.808418
2032 0.808376
2033 0.808334
2034 0.808291
2035 0.808249
2036 0.808207
2037 0.808165
2038 0.808122
2039 0.80808
2040 0.808038
2041 0.807996
2042 0.807954
2043 0.807912
2044 0.80787
2045 0.807828
2046 0.807786
2047 0.807744
2048 0.807702
2049 0.807661
2050 0.807618
2051 0.807577
2052 0.807535
2053 0.807493
2054 0.807452
2055 0.80741
2056 0.807369
2057 0.807328
2058 0.807287
2059 0.807246
2060 0.807205
2061 0.807164
2062 0.807123
2063 0.807081
2064 0.80704
2065 0.806999
2066 0.806957
2067 0.806916
2068 0.806874
2069 0.806832
2070 0.806791
2071 0.80675
2072 0.806708
2073 0.806668
2074 0.806627
2075 0.806586
2076 0.806545
2077 0.806505
2078 0.806464
2079 0.806424
2080 0.806383
2081 0.806342
2082 0.806301
2083 0.80626
2084 0.806219
2085 0.806176
2086 0.806133
2087 0.806088
2088 0.806042
2089 0.805997
2090 0.805954
2091 0.805911
2092 0.805869
2093 0.805826
2094 0.805785
2095 0.805743
2096 0.805702
2097 0.805662
2098 0.80562
2099 0.805578
2100 0.805535
2101 0.805491
2102 0.805447
2103 0.805401
2104 0.805355
2105 0.805309
2106 0.805263
2107 0.805218
2108 0.805173
2109 0.80513
2110 0.805087
2111 0.805046
2112 0.805008
2113 0.80497
2114 0.804933
2115 0.804896
2116 0.804859
2117 0.804822
2118 0.804784
2119 0.804745
2120 0.804704
2121 0.804664
2122 0.804625
2123 0.804586
2124 0.804547
2125 0.804508
2126 0.80447
2127 0.804431
2128 0.804392
2129 0.804355
2130 0.804316
2131 0.804279
2132 0.80424
2133 0.804202
2134 0.804164
2135 0.804125
2136 0.804088
2137 0.804049
2138 0.804011
2139 0.803972
2140 0.803933
2141 0.803895
2142 0.803857
2143 0.803819
2144 0.803781
2145 0.803743
2146 0.803705
2147 0.803668
2148 0.803629
2149 0.80359
2150 0.803552
2151 0.803514
2152 0.803476
2153 0.803437
2154 0.8034
2155 0.803361
2156 0.803323
2157 0.803283
2158 0.803244
2159 0.803205
2160 0.803164
2161 0.803122
2162 0.80308
2163 0.80304
2164 0.802999
2165 0.80296
2166 0.80292
2167 0.80288
2168 0.80284
2169 0.802799
2170 0.802759
2171 0.80272
2172 0.802681
2173 0.802642
2174 0.802604
2175 0.802564
2176 0.802524
2177 0.802484
2178 0.802443
2179 0.802403
2180 0.802365
2181 0.802324
2182 0.802283
2183 0.802243
2184 0.802204
2185 0.802165
2186 0.802125
2187 0.802085
2188 0.802047
2189 0.802009
2190 0.80197
2191 0.801932
2192 0.801894
2193 0.801854
2194 0.801815
2195 0.801776
2196 0.801738
2197 0.801699
2198 0.80166
2199 0.801622
2200 0.801585
2201 0.801545
2202 0.801507
2203 0.801469
2204 0.801432
2205 0.801396
2206 0.801359
2207 0.801323
2208 0.801285
2209 0.801247
2210 0.80121
2211 0.801171
2212 0.801132
2213 0.801092
2214 0.801054
2215 0.801016
2216 0.800979
2217 0.800941
2218 0.800904
2219 0.800866
2220 0.800827
2221 0.80079
2222 0.800754
2223 0.800714
2224 0.800674
2225 0.800634
2226 0.800595
2227 0.800554
2228 0.800517
2229 0.80048
2230 0.80044
2231 0.800403
2232 0.800366
2233 0.80033
2234 0.800294
2235 0.800258
2236 0.800221
2237 0.800184
2238 0.800144
2239 0.800108
2240 0.800071
2241 0.800035
2242 0.799999
2243 0.799963
2244 0.799927
2245 0.799889
2246 0.799852
2247 0.799816
2248 0.799777
2249 0.79974
2250 0.799702
2251 0.799666
2252 0.79963
2253 0.799593
2254 0.799556
2255 0.79952
2256 0.799484
2257 0.799447
2258 0.799411
2259 0.799375
2260 0.799337
2261 0.799301
2262 0.799265
2263 0.79923
2264 0.799195
2265 0.799159