1 1.05742
2 1.05704
3 1.05665
4 1.05627
5 1.05588
6 1.05555
7 1.05583
8 1.05646
9 1.05681
10 1.05694
11 1.05702
12 1.05708
13 1.05713
14 1.05716
15 1.05719
16 1.05722
17 1.05724
18 1.05726
19 1.05728
20 1.05729
21 1.0573
22 1.05732
23 1.05733
24 1.05734
25 1.05735
26 1.05735
27 1.05736
28 1.05737
29 1.05737
30 1.05738
31 1.05739
32 1.05739
33 1.0574
34 1.0574
35 1.0574
36 1.05741
37 1.05741
38 1.05742
39 1.05742
40 1.05742
41 1.05742
42 1.05743
43 1.05743
44 1.05743
45 1.05744
46 1.05744
47 1.05744
48 1.05744
49 1.05744
50 1.05745
51 1.05745
52 1.05745
53 1.05745
54 1.05745
55 1.05746
56 1.05746
57 1.05746
58 1.05746
59 1.05746
60 1.05746
61 1.05747
62 1.05747
63 1.05747
64 1.05747
65 1.05747
66 1.05747
67 1.05747
68 1.05747
69 1.05747
70 1.05748
71 1.05748
72 1.05748
73 1.05748
74 1.05748
75 1.05748
76 1.05748
77 1.05749
78 1.05749
79 1.05749
80 1.05749
81 1.05749
82 1.05749
83 1.05749
84 1.05749
85 1.0575
86 1.0575
87 1.0575
88 1.0575
89 1.0575
90 1.0575
91 1.0575
92 1.0575
93 1.0575
94 1.05751
95 1.05751
96 1.05751
97 1.05751
98 1.05751
99 1.05751
100 1.05751
101 1.05751
102 1.05751
103 1.05752
104 1.05752
105 1.05752
106 1.05752
107 1.05752
108 1.05752
109 1.05752
110 1.05752
111 1.05752
112 1.05753
113 1.05753
114 1.05753
115 1.05753
116 1.05753
117 1.05753
118 1.05753
119 1.05753
120 1.05753
121 1.05754
122 1.05754
123 1.05754
124 1.05754
125 1.05754
126 1.05754
127 1.05754
128 1.05754
129 1.05754
130 1.05754
131 1.05755
132 1.05755
133 1.05755
134 1.05755
135 1.05755
136 1.05755
137 1.05755
138 1.05755
139 1.05755
140 1.05755
141 1.05756
142 1.05756
143 1.05756
144 1.05756
145 1.05756
146 1.05756
147 1.05756
148 1.05756
149 1.05756
150 1.05756
151 1.05757
152 1.05757
153 1.05757
154 1.05757
155 1.05757
156 1.05757
157 1.05757
158 1.05757
159 1.05757
160 1.05757
161 1.05757
162 1.05757
163 1.05758
164 1.05758
165 1.05758
166 1.05758
167 1.05758
168 1.05758
169 1.05758
170 1.05758
171 1.05758
172 1.05758
173 1.05758
174 1.05758
175 1.05758
176 1.05758
177 1.05759
178 1.05759
179 1.05759
180 1.05759
181 1.05759
182 1.05759
183 1.05759
184 1.05759
185 1.05759
186 1.05759
187 1.05759
188 1.05759
189 1.05759
190 1.05759
191 1.05759
192 1.05759
193 1.05759
194 1.05759
195 1.05759
196 1.05759
197 1.05759
198 1.05759
199 1.05759
200 1.05759
201 1.05759
202 1.05759
203 1.05759
204 1.05759
205 1.05759
206 1.05759
207 1.05759
208 1.05759
209 1.05759
210 1.05758
211 1.05758
212 1.05758
213 1.05758
214 1.05758
215 1.05758
216 1.05758
217 1.05758
218 1.05758
219 1.05758
220 1.05758
221 1.05758
222 1.05758
223 1.05758
224 1.05758
225 1.05758
226 1.05758
227 1.05758
228 1.05757
229 1.05757
230 1.05757
231 1.05757
232 1.05757
233 1.05757
234 1.05757
235 1.05757
236 1.05757
237 1.05757
238 1.05757
239 1.05757
240 1.05757
241 1.05757
242 1.05757
243 1.05757
244 1.05757
245 1.05756
246 1.05756
247 1.05756
248 1.05756
249 1.05756
250 1.05756
251 1.05756
252 1.05756
253 1.05756
254 1.05756
255 1.05756
256 1.05756
257 1.05756
258 1.05756
259 1.05756
260 1.05756
261 1.05756
262 1.05755
263 1.05755
264 1.05755
265 1.05755
266 1.05755
267 1.05755
268 1.05755
269 1.05755
270 1.05755
271 1.05755
272 1.05755
273 1.05755
274 1.05755
275 1.05755
276 1.05755
277 1.05755
278 1.05755
279 1.05754
280 1.05754
281 1.05754
282 1.05754
283 1.05754
284 1.05754
285 1.05754
286 1.05754
287 1.05754
288 1.05754
289 1.05754
290 1.05754
291 1.05754
292 1.05754
293 1.05754
294 1.05754
295 1.05754
296 1.05754
297 1.05753
298 1.05753
299 1.05753
300 1.05753
301 1.05753
302 1.05753
303 1.05753
304 1.05753
305 1.05753
306 1.05753
307 1.05753
308 1.05753
309 1.05753
310 1.05753
311 1.05753
312 1.05753
313 1.05753
314 1.05752
315 1.05752
316 1.05752
317 1.05752
318 1.05752
319 1.05752
320 1.05752
321 1.05752
322 1.05752
323 1.05752
324 1.05752
325 1.05752
326 1.05752
327 1.05752
328 1.05752
329 1.05752
330 1.05752
331 1.05751
332 1.05751
333 1.05751
334 1.05751
335 1.05751
336 1.05751
337 1.05751
338 1.05751
339 1.05751
340 1.05751
341 1.05751
342 1.05751
343 1.05751
344 1.05751
345 1.05751
346 1.05751
347 1.05751
348 1.0575
349 1.0575
350 1.0575
351 1.0575
352 1.0575
353 1.0575
354 1.0575
355 1.0575
356 1.0575
357 1.0575
358 1.0575
359 1.0575
360 1.0575
361 1.0575
362 1.0575
363 1.0575
364 1.0575
365 1.0575
366 1.05749
367 1.05749
368 1.05749
369 1.05749
370 1.05749
371 1.05749
372 1.05749
373 1.05749
374 1.05749
375 1.05749
376 1.05749
377 1.05749
378 1.05749
379 1.05749
380 1.05749
381 1.05749
382 1.05749
383 1.05748
384 1.05748
385 1.05748
386 1.05748
387 1.05748
388 1.05748
389 1.05748
390 1.05748
391 1.05748
392 1.05748
393 1.05748
394 1.05748
395 1.05748
396 1.05748
397 1.05748
398 1.05748
399 1.05748
400 1.05747
401 1.05747
402 1.05747
403 1.05747
404 1.05747
405 1.05747
406 1.05747
407 1.05747
408 1.05747
409 1.05747
410 1.05747
411 1.05747
412 1.05747
413 1.05747
414 1.05747
415 1.05747
416 1.05747
417 1.05746
418 1.05746
419 1.05746
420 1.05746
421 1.05746
422 1.05746
423 1.05746
424 1.05746
425 1.05746
426 1.05746
427 1.05746
428 1.05746
429 1.05746
430 1.05746
431 1.05746
432 1.05746
433 1.05746
434 1.05746
435 1.05745
436 1.05745
437 1.05745
438 1.05745
439 1.05745
440 1.05745
441 1.05745
442 1.05745
443 1.05745
444 1.05745
445 1.05745
446 1.05745
447 1.05745
448 1.05745
449 1.05745
450 1.05745
451 1.05745
452 1.05744
453 1.05744
454 1.05744
455 1.05744
456 1.05744
457 1.05744
458 1.05744
459 1.05744
460 1.05744
461 1.05744
462 1.05744
463 1.05744
464 1.05744
465 1.05744
466 1.05744
467 1.05744
468 1.05744
469 1.05743
470 1.05743
471 1.05743
472 1.05743
473 1.05743
474 1.05743
475 1.05743
476 1.05743
477 1.05743
478 1.05743
479 1.05743
480 1.05743
481 1.05743
482 1.05743
483 1.05743
484 1.05743
485 1.05743
486 1.05742
487 1.05742
488 1.05742
489 1.05742
490 1.05742
491 1.05742
492 1.05742
493 1.05742
494 1.05742
495 1.05742
496 1.05742
497 1.05742
498 1.05742
499 1.05742
500 1.05742
501 1.05742
502 1.05742
503 1.05741
504 1.05741
505 1.05741
506 1.05741
507 1.05741
508 1.05741
509 1.05741
510 1.05741
511 1.05741
512 1.05741
513 1.05741
514 1.05741
515 1.05741
516 1.05741
517 1.05741
518 1.05741
519 1.05741
520 1.0574
521 1.0574
522 1.0574
523 1.0574
524 1.0574
525 1.0574
526 1.0574
527 1.0574
528 1.0574
529 1.0574
530 1.0574
531 1.0574
532 1.0574
533 1.0574
534 1.0574
535 1.0574
536 1.0574
537 1.05739
538 1.05739
539 1.05739
540 1.05739
541 1.05739
542 1.05739
543 1.05739
544 1.05739
545 1.05739
546 1.05739
547 1.05739
548 1.05739
549 1.05739
550 1.05739
551 1.05739
552 1.05739
553 1.05739
554 1.05739
555 1.05738
556 1.05738
557 1.05738
558 1.05738
559 1.05738
560 1.05738
561 1.05738
562 1.05738
563 1.05738
564 1.05738
565 1.05738
566 1.05738
567 1.05738
568 1.05738
569 1.05738
570 1.05738
571 1.05738
572 1.05737
573 1.05737
574 1.05737
575 1.05737
576 1.05737
577 1.05737
578 1.05737
579 1.05737
580 1.05737
581 1.05737
582 1.05737
583 1.05737
584 1.05737
585 1.05737
586 1.05737
587 1.05737
588 1.05737
589 1.05736
590 1.05736
591 1.05736
592 1.05736
593 1.05736
594 1.05736
595 1.05736
596 1.05736
597 1.05736
598 1.05736
599 1.05736
600 1.05736
601 1.05736
602 1.05736
603 1.05736
604 1.05736
605 1.05736
606 1.05735
607 1.05735
608 1.05735
609 1.05735
610 1.05735
611 1.05735
612 1.05735
613 1.05735
614 1.05735
615 1.05735
616 1.05735
617 1.05735
618 1.05735
619 1.05735
620 1.05735
621 1.05735
622 1.05735
623 1.05734
624 1.05734
625 1.05734
626 1.05734
627 1.05734
628 1.05734
629 1.05734
630 1.05734
631 1.05734
632 1.05734
633 1.05734
634 1.05734
635 1.05734
636 1.05734
637 1.05734
638 1.05734
639 1.05734
640 1.05733
641 1.05733
642 1.05733
643 1.05733
644 1.05733
645 1.05733
646 1.05733
647 1.05733
648 1.05733
649 1.05733
650 1.05733
651 1.05733
652 1.05733
653 1.05733
654 1.05733
655 1.05733
656 1.05733
657 1.05732
658 1.05732
659 1.05732
660 1.05732
661 1.05732
662 1.05732
663 1.05732
664 1.05732
665 1.05732
666 1.05732
667 1.05732
668 1.05732
669 1.05732
670 1.05732
671 1.05732
672 1.05732
673 1.05732
674 1.05731
675 1.05731
676 1.05731
677 1.05731
678 1.05731
679 1.05731
680 1.05731
681 1.05731
682 1.05731
683 1.05731
684 1.05731
685 1.05731
686 1.05731
687 1.05731
688 1.05731
689 1.05731
690 1.05731
691 1.0573
692 1.0573
693 1.0573
694 1.0573
695 1.0573
696 1.0573
697 1.0573
698 1.0573
699 1.0573
700 1.0573
701 1.0573
702 1.0573
703 1.0573
704 1.0573
705 1.0573
706 1.0573
707 1.0573
708 1.05729
709 1.05729
710 1.05729
711 1.05729
712 1.05729
713 1.05729
714 1.05729
715 1.05729
716 1.05729
717 1.05729
718 1.05729
719 1.05729
720 1.05729
721 1.05729
722 1.05729
723 1.05729
724 1.05729
725 1.05728
726 1.05728
727 1.05728
728 1.05728
729 1.05728
730 1.05728
731 1.05728
732 1.05728
733 1.05728
734 1.05728
735 1.05728
736 1.05728
737 1.05728
738 1.05728
739 1.05728
740 1.05728
741 1.05728
742 1.05727
743 1.05727
744 1.05727
745 1.05727
746 1.05727
747 1.05727
748 1.05727
749 1.05727
750 1.05727
751 1.05727
752 1.05727
753 1.05727
754 1.05727
755 1.05727
756 1.05727
757 1.05727
758 1.05727
759 1.05726
760 1.05726
761 1.05726
762 1.05726
763 1.05726
764 1.05726
765 1.05726
766 1.05726
767 1.05726
768 1.05726
769 1.05726
770 1.05726
771 1.05726
772 1.05726
773 1.05726
774 1.05726
775 1.05726
776 1.05725
777 1.05725
778 1.05725
779 1.05725
780 1.05725
781 1.05725
782 1.05725
783 1.05725
784 1.05725
785 1.05725
786 1.05725
787 1.05725
788 1.05725
789 1.05725
790 1.05725
791 1.05725
792 1.05725
793 1.05724
794 1.05724
795 1.05724
796 1.05724
797 1.05724
798 1.05724
799 1.05724
800 1.05724
801 1.05724
802 1.05724
803 1.05724
804 1.05724
805 1.05724
806 1.05724
807 1.05724
808 1.05724
809 1.05724
810 1.05723
811 1.05723
812 1.05723
813 1.05723
814 1.05723
815 1.05723
816 1.05723
817 1.05723
818 1.05723
819 1.05723
820 1.05723
821 1.05723
822 1.05723
823 1.05723
824 1.05723
825 1.05723
826 1.05723
827 1.05722
828 1.05722
829 1.05722
830 1.05722
831 1.05722
832 1.05722
833 1.05722
834 1.05722
835 1.05722
836 1.05722
837 1.05722
838 1.05722
839 1.05722
840 1.05722
841 1.05722
842 1.05722
843 1.05722
844 1.05721
845 1.05721
846 1.05721
847 1.05721
848 1.05721
849 1.05721
850 1.05721
851 1.05721
852 1.05721
853 1.05721
854 1.05721
855 1.05721
856 1.05721
857 1.05721
858 1.05721
859 1.05721
860 1.05721
861 1.0572
862 1.0572
863 1.0572
864 1.0572
865 1.0572
866 1.0572
867 1.0572
868 1.0572
869 1.0572
870 1.0572
871 1.0572
872 1.0572
873 1.0572
874 1.0572
875 1.0572
876 1.0572
877 1.0572
878 1.05719
879 1.05719
880 1.05719
881 1.05719
882 1.05719
883 1.05719
884 1.05719
885 1.05719
886 1.05719
887 1.05719
888 1.05719
889 1.05719
890 1.05719
891 1.05719
892 1.05719
893 1.05719
894 1.05719
895 1.05718
896 1.05718
897 1.05718
898 1.05718
899 1.05718
900 1.05718
901 1.05718
902 1.05718
903 1.05718
904 1.05718
905 1.05718
906 1.05718
907 1.05718
908 1.05718
909 1.05718
910 1.05718
911 1.05718
912 1.05717
913 1.05717
914 1.05717
915 1.05717
916 1.05717
917 1.05717
918 1.05717
919 1.05717
920 1.05717
921 1.05717
922 1.05717
923 1.05717
924 1.05717
925 1.05717
926 1.05717
927 1.05717
928 1.05717
929 1.05716
930 1.05716
931 1.05716
932 1.05716
933 1.05716
934 1.05716
935 1.05716
936 1.05716
937 1.05716
938 1.05716
939 1.05716
940 1.05716
941 1.05716
942 1.05716
943 1.05716
944 1.05716
945 1.05716
946 1.05715
947 1.05715
948 1.05715
949 1.05715
950 1.05715
951 1.05715
952 1.05715
953 1.05715
954 1.05715
955 1.05715
956 1.05715
957 1.05715
958 1.05715
959 1.05715
960 1.05715
961 1.05715
962 1.05715
963 1.05714
964 1.05714
965 1.05714
966 1.05714
967 1.05714
968 1.05714
969 1.05714
970 1.05714
971 1.05714
972 1.05714
973 1.05714
974 1.05714
975 1.05714
976 1.05714
977 1.05714
978 1.05714
979 1.05713
980 1.05713
981 1.05713
982 1.05713
983 1.05713
984 1.05713
985 1.05713
986 1.05713
987 1.05713
988 1.05713
989 1.05713
990 1.05713
991 1.05713
992 1.05713
993 1.05713
994 1.05713
995 1.05713
996 1.05712
997 1.05712
998 1.05712
999 1.05712
1000 1.05712
1001 1.05712
1002 1.05712
1003 1.05712
1004 1.05712
1005 1.05712
1006 1.05712
1007 1.05712
1008 1.05712
1009 1.05712
1010 1.05712
1011 1.05712
1012 1.05712
1013 1.05711
1014 1.05711
1015 1.05711
1016 1.05711
1017 1.05711
1018 1.05711
1019 1.05711
1020 1.05711
1021 1.05711
1022 1.05711
1023 1.05711
1024 1.05711
1025 1.05711
1026 1.05711
1027 1.05711
1028 1.05711
1029 1.05711
1030 1.0571
1031 1.0571
1032 1.0571
1033 1.0571
1034 1.0571
1035 1.0571
1036 1.0571
1037 1.0571
1038 1.0571
1039 1.0571
1040 1.0571
1041 1.0571
1042 1.0571
1043 1.0571
1044 1.0571
1045 1.0571
1046 1.0571
1047 1.05709
1048 1.05709
1049 1.05709
1050 1.05709
1051 1.05709
1052 1.05709
1053 1.05709
1054 1.05709
1055 1.05709
1056 1.05709
1057 1.05709
1058 1.05709
1059 1.05709
1060 1.05709
1061 1.05709
1062 1.05709
1063 1.05709
1064 1.05708
1065 1.05708
1066 1.05708
1067 1.05708
1068 1.05708
1069 1.05708
1070 1.05708
1071 1.05708
1072 1.05708
1073 1.05708
1074 1.05708
1075 1.05708
1076 1.05708
1077 1.05708
1078 1.05708
1079 1.05708
1080 1.05708
1081 1.05707
1082 1.05707
1083 1.05707
1084 1.05707
1085 1.05707
1086 1.05707
1087 1.05707
1088 1.05707
1089 1.05707
1090 1.05707
1091 1.05707
1092 1.05707
1093 1.05707
1094 1.05707
1095 1.05707
1096 1.05707
1097 1.05707
1098 1.05706
1099 1.05706
1100 1.05706
1101 1.05706
1102 1.05706
1103 1.05706
1104 1.05706
1105 1.05706
1106 1.05706
1107 1.05706
1108 1.05706
1109 1.05706
1110 1.05706
1111 1.05706
1112 1.05706
1113 1.05706
1114 1.05705
1115 1.05705
1116 1.05705
1117 1.05705
1118 1.05705
1119 1.05705
1120 1.05705
1121 1.05705
1122 1.05705
1123 1.05705
1124 1.05705
1125 1.05705
1126 1.05705
1127 1.05705
1128 1.05705
1129 1.05705
1130 1.05705
1131 1.05704
1132 1.05704
1133 1.05704
1134 1.05704
1135 1.05704
1136 1.05704
1137 1.05704
1138 1.05704
1139 1.05704
1140 1.05704
1141 1.05704
1142 1.05704
1143 1.05704
1144 1.05704
1145 1.05704
1146 1.05704
1147 1.05704
1148 1.05703
1149 1.05703
1150 1.05703
1151 1.05703
1152 1.05703
1153 1.05703
1154 1.05703
1155 1.05703
1156 1.05703
1157 1.05703
1158 1.05703
1159 1.05703
1160 1.05703
1161 1.05703
1162 1.05703
1163 1.05703
1164 1.05703
1165 1.05702
1166 1.05702
1167 1.05702
1168 1.05702
1169 1.05702
1170 1.05702
1171 1.05702
1172 1.05702
1173 1.05702
1174 1.05702
1175 1.05702
1176 1.05702
1177 1.05702
1178 1.05702
1179 1.05702
1180 1.05702
1181 1.05702
1182 1.05701
1183 1.05701
1184 1.05701
1185 1.05701
1186 1.05701
1187 1.05701
1188 1.05701
1189 1.05701
1190 1.05701
1191 1.05701
1192 1.05701
1193 1.05701
1194 1.05701
1195 1.05701
1196 1.05701
1197 1.05701
1198 1.057
1199 1.057
1200 1.057
1201 1.057
1202 1.057
1203 1.057
1204 1.057
1205 1.057
1206 1.057
1207 1.057
1208 1.057
1209 1.057
1210 1.057
1211 1.057
1212 1.057
1213 1.057
1214 1.057
1215 1.05699
1216 1.05699
1217 1.05699
1218 1.05699
1219 1.05699
1220 1.05699
1221 1.05699
1222 1.05699
1223 1.05699
1224 1.05699
1225 1.05699
1226 1.05699
1227 1.05699
1228 1.05699
1229 1.05699
1230 1.05699
1231 1.05699
1232 1.05698
1233 1.05698
1234 1.05698
1235 1.05698
1236 1.05698
1237 1.05698
1238 1.05698
1239 1.05698
1240 1.05698
1241 1.05698
1242 1.05698
1243 1.05698
1244 1.05698
1245 1.05698
1246 1.05698
1247 1.05698
1248 1.05698
1249 1.05697
1250 1.05697
1251 1.05697
1252 1.05697
1253 1.05697
1254 1.05697
1255 1.05697
1256 1.05697
1257 1.05697
1258 1.05697
1259 1.05697
1260 1.05697
1261 1.05697
1262 1.05697
1263 1.05697
1264 1.05697
1265 1.05697
1266 1.05696
1267 1.05696
1268 1.05696
1269 1.05696
1270 1.05696
1271 1.05696
1272 1.05696
1273 1.05696
1274 1.05696
1275 1.05696
1276 1.05696
1277 1.05696
1278 1.05696
1279 1.05696
1280 1.05696
1281 1.05696
1282 1.05695
1283 1.05695
1284 1.05695
1285 1.05695
1286 1.05695
1287 1.05695
1288 1.05695
1289 1.05695
1290 1.05695
1291 1.05695
1292 1.05695
1293 1.05695
1294 1.05695
1295 1.05695
1296 1.05695
1297 1.05695
1298 1.05695
1299 1.05694
1300 1.05694
1301 1.05694
1302 1.05694
1303 1.05694
1304 1.05694
1305 1.05694
1306 1.05694
1307 1.05694
1308 1.05694
1309 1.05694
1310 1.05694
1311 1.05694
1312 1.05694
1313 1.05694
1314 1.05694
1315 1.05694
1316 1.05693
1317 1.05693
1318 1.05693
1319 1.05693
1320 1.05693
1321 1.05693
1322 1.05693
1323 1.05693
1324 1.05693
1325 1.05693
1326 1.05693
1327 1.05693
1328 1.05693
1329 1.05693
1330 1.05693
1331 1.05693
1332 1.05693
1333 1.05692
1334 1.05692
1335 1.05692
1336 1.05692
1337 1.05692
1338 1.05692
1339 1.05692
1340 1.05692
1341 1.05692
1342 1.05692
1343 1.05692
1344 1.05692
1345 1.05692
1346 1.05692
1347 1.05692
1348 1.05692
1349 1.05691
1350 1.05691
1351 1.05691
1352 1.05691
1353 1.05691
1354 1.05691
1355 1.05691
1356 1.05691
1357 1.05691
1358 1.05691
1359 1.05691
1360 1.05691
1361 1.05691
1362 1.05691
1363 1.05691
1364 1.05691
1365 1.05691
1366 1.0569
1367 1.0569
1368 1.0569
1369 1.0569
1370 1.0569
1371 1.0569
1372 1.0569
1373 1.0569
1374 1.0569
1375 1.0569
1376 1.0569
1377 1.0569
1378 1.0569
1379 1.0569
1380 1.0569
1381 1.0569
1382 1.0569
1383 1.05689
1384 1.05689
1385 1.05689
1386 1.05689
1387 1.05689
1388 1.05689
1389 1.05689
1390 1.05689
1391 1.05689
1392 1.05689
1393 1.05689
1394 1.05689
1395 1.05689
1396 1.05689
1397 1.05689
1398 1.05689
1399 1.05689
1400 1.05688
1401 1.05688
1402 1.05688
1403 1.05688
1404 1.05688
1405 1.05688
1406 1.05688
1407 1.05688
1408 1.05688
1409 1.05688
1410 1.05688
1411 1.05688
1412 1.05688
1413 1.05688
1414 1.05688
1415 1.05688
1416 1.05687
1417 1.05687
1418 1.05687
1419 1.05687
1420 1.05687
1421 1.05687
1422 1.05687
1423 1.05687
1424 1.05687
1425 1.05687
1426 1.05687
1427 1.05687
1428 1.05687
1429 1.05687
1430 1.05687
1431 1.05687
1432 1.05687
1433 1.05686
1434 1.05686
1435 1.05686
1436 1.05686
1437 1.05686
1438 1.05686
1439 1.05686
1440 1.05686
1441 1.05686
1442 1.05686
1443 1.05686
1444 1.05686
1445 1.05686
1446 1.05686
1447 1.05686
1448 1.05686
1449 1.05686
1450 1.05685
1451 1.05685
1452 1.05685
1453 1.05685
1454 1.05685
1455 1.05685
1456 1.05685
1457 1.05685
1458 1.05685
1459 1.05685
1460 1.05685
1461 1.05685
1462 1.05685
1463 1.05685
1464 1.05685
1465 1.05685
1466 1.05684
1467 1.05684
1468 1.05684
1469 1.05684
1470 1.05684
1471 1.05684
1472 1.05684
1473 1.05684
1474 1.05684
1475 1.05684
1476 1.05684
1477 1.05684
1478 1.05684
1479 1.05684
1480 1.05684
1481 1.05684
1482 1.05684
1483 1.05683
1484 1.05683
1485 1.05683
1486 1.05683
1487 1.05683
1488 1.05683
1489 1.05683
1490 1.05683
1491 1.05683
1492 1.05683
1493 1.05683
1494 1.05683
1495 1.05683
1496 1.05683
1497 1.05683
1498 1.05683
1499 1.05683
1500 1.05682
1501 1.05682
1502 1.05682
1503 1.05682
1504 1.05682
1505 1.05682
1506 1.05682
1507 1.05682
1508 1.05682
1509 1.05682
1510 1.05682
1511 1.05682
1512 1.05682
1513 1.05682
1514 1.05682
1515 1.05682
1516 1.05681
1517 1.05681
1518 1.05681
1519 1.05681
1520 1.05681
1521 1.05681
1522 1.05681
1523 1.05681
1524 1.05681
1525 1.05681
1526 1.05681
1527 1.05681
1528 1.05681
1529 1.05681
1530 1.05681
1531 1.05681
1532 1.05681
1533 1.0568
1534 1.0568
1535 1.0568
1536 1.0568
1537 1.0568
1538 1.0568
1539 1.0568
1540 1.0568
1541 1.0568
1542 1.0568
1543 1.0568
1544 1.0568
1545 1.0568
1546 1.0568
1547 1.0568
1548 1.0568
1549 1.0568
1550 1.05679
1551 1.05679
1552 1.05679
1553 1.05679
1554 1.05679
1555 1.05679
1556 1.05679
1557 1.05679
1558 1.05679
1559 1.05679
1560 1.05679
1561 1.05679
1562 1.05679
1563 1.05679
1564 1.05679
1565 1.05679
1566 1.05678
1567 1.05678
1568 1.05678
1569 1.05678
1570 1.05678
1571 1.05678
1572 1.05678
1573 1.05678
1574 1.05678
1575 1.05678
1576 1.05678
1577 1.05678
1578 1.05678
1579 1.05678
1580 1.05678
1581 1.05678
1582 1.05678
1583 1.05677
1584 1.05677
1585 1.05677
1586 1.05677
1587 1.05677
1588 1.05677
1589 1.05677
1590 1.05677
1591 1.05677
1592 1.05677
1593 1.05677
1594 1.05677
1595 1.05677
1596 1.05677
1597 1.05677
1598 1.05677
1599 1.05677
1600 1.05676
1601 1.05676
1602 1.05676
1603 1.05676
1604 1.05676
1605 1.05676
1606 1.05676
1607 1.05676
1608 1.05676
1609 1.05676
1610 1.05676
1611 1.05676
1612 1.05676
1613 1.05676
1614 1.05676
1615 1.05676
1616 1.05675
1617 1.05675
1618 1.05675
1619 1.05675
1620 1.05675
1621 1.05675
1622 1.05675
1623 1.05675
1624 1.05675
1625 1.05675
1626 1.05675
1627 1.05675
1628 1.05675
1629 1.05675
1630 1.05675
1631 1.05675
1632 1.05675
1633 1.05674
1634 1.05674
1635 1.05674
1636 1.05674
1637 1.05674
1638 1.05674
1639 1.05674
1640 1.05674
1641 1.05674
1642 1.05674
1643 1.05674
1644 1.05674
1645 1.05674
1646 1.05674
1647 1.05674
1648 1.05674
1649 1.05674
1650 1.05673
1651 1.05673
1652 1.05673
1653 1.05673
1654 1.05673
1655 1.05673
1656 1.05673
1657 1.05673
1658 1.05673
1659 1.05673
1660 1.05673
1661 1.05673
1662 1.05673
1663 1.05673
1664 1.05673
1665 1.05673
1666 1.05672
1667 1.05672
1668 1.05672
1669 1.05672
1670 1.05672
1671 1.05672
1672 1.05672
1673 1.05672
1674 1.05672
1675 1.05672
1676 1.05672
1677 1.05672
1678 1.05672
1679 1.05672
1680 1.05672
1681 1.05672
1682 1.05672
1683 1.05671
1684 1.05671
1685 1.05671
1686 1.05671
1687 1.05671
1688 1.05671
1689 1.05671
1690 1.05671
1691 1.05671
1692 1.05671
1693 1.05671
1694 1.05671
1695 1.05671
1696 1.05671
1697 1.05671
1698 1.05671
1699 1.05671
1700 1.0567
1701 1.0567
1702 1.0567
1703 1.0567
1704 1.0567
1705 1.0567
1706 1.0567
1707 1.0567
1708 1.0567
1709 1.0567
1710 1.0567
1711 1.0567
1712 1.0567
1713 1.0567
1714 1.0567
1715 1.0567
1716 1.05669
1717 1.05669
1718 1.05669
1719 1.05669
1720 1.05669
1721 1.05669
1722 1.05669
1723 1.05669
1724 1.05669
1725 1.05669
1726 1.05669
1727 1.05669
1728 1.05669
1729 1.05669
1730 1.05669
1731 1.05669
1732 1.05669
1733 1.05668
1734 1.05668
1735 1.05668
1736 1.05668
1737 1.05668
1738 1.05668
1739 1.05668
1740 1.05668
1741 1.05668
1742 1.05668
1743 1.05668
1744 1.05668
1745 1.05668
1746 1.05668
1747 1.05668
1748 1.05668
1749 1.05667
1750 1.05667
1751 1.05667
1752 1.05667
1753 1.05667
1754 1.05667
1755 1.05667
1756 1.05667
1757 1.05667
1758 1.05667
1759 1.05667
1760 1.05667
1761 1.05667
1762 1.05667
1763 1.05667
1764 1.05667
1765 1.05667
1766 1.05666
1767 1.05666
1768 1.05666
1769 1.05666
1770 1.05666
1771 1.05666
1772 1.05666
1773 1.05666
1774 1.05666
1775 1.05666
1776 1.05666
1777 1.05666
1778 1.05666
1779 1.05666
1780 1.05666
1781 1.05666
1782 1.05666
1783 1.05665
1784 1.05665
1785 1.05665
1786 1.05665
1787 1.05665
1788 1.05665
1789 1.05665
1790 1.05665
1791 1.05665
1792 1.05665
1793 1.05665
1794 1.05665
1795 1.05665
1796 1.05665
1797 1.05665
1798 1.05665
1799 1.05664
1800 1.05664
1801 1.05664
1802 1.05664
1803 1.05664
1804 1.05664
1805 1.05664
1806 1.05664
1807 1.05664
1808 1.05664
1809 1.05664
1810 1.05664
1811 1.05664
1812 1.05664
1813 1.05664
1814 1.05664
1815 1.05664
1816 1.05663
1817 1.05663
1818 1.05663
1819 1.05663
1820 1.05663
1821 1.05663
1822 1.05663
1823 1.05663
1824 1.05663
1825 1.05663
1826 1.05663
1827 1.05663
1828 1.05663
1829 1.05663
1830 1.05663
1831 1.05663
1832 1.05662
1833 1.05662
1834 1.05662
1835 1.05662
1836 1.05662
1837 1.05662
1838 1.05662
1839 1.05662
1840 1.05662
1841 1.05662
1842 1.05662
1843 1.05662
1844 1.05662
1845 1.05662
1846 1.05662
1847 1.05662
1848 1.05662
1849 1.05661
1850 1.05661
1851 1.05661
1852 1.05661
1853 1.05661
1854 1.05661
1855 1.05661
1856 1.05661
1857 1.05661
1858 1.05661
1859 1.05661
1860 1.05661
1861 1.05661
1862 1.05661
1863 1.05661
1864 1.05661
1865 1.05661
1866 1.0566
1867 1.0566
1868 1.0566
1869 1.0566
1870 1.0566
1871 1.0566
1872 1.0566
1873 1.0566
1874 1.0566
1875 1.0566
1876 1.0566
1877 1.0566
1878 1.0566
1879 1.0566
1880 1.0566
1881 1.0566
1882 1.05659
1883 1.05659
1884 1.05659
1885 1.05659
1886 1.05659
1887 1.05659
1888 1.05659
1889 1.05659
1890 1.05659
1891 1.05659
1892 1.05659
1893 1.05659
1894 1.05659
1895 1.05659
1896 1.05659
1897 1.05659
1898 1.05659
1899 1.05658
1900 1.05658
1901 1.05658
1902 1.05658
1903 1.05658
1904 1.05658
1905 1.05658
1906 1.05658
1907 1.05658
1908 1.05658
1909 1.05658
1910 1.05658
1911 1.05658
1912 1.05658
1913 1.05658
1914 1.05658
1915 1.05657
1916 1.05657
1917 1.05657
1918 1.05657
1919 1.05657
1920 1.05657
1921 1.05657
1922 1.05657
1923 1.05657
1924 1.05657
1925 1.05657
1926 1.05657
1927 1.05657
1928 1.05657
1929 1.05657
1930 1.05657
1931 1.05657
1932 1.05656
1933 1.05656
1934 1.05656
1935 1.05656
1936 1.05656
1937 1.05656
1938 1.05656
1939 1.05656
1940 1.05656
1941 1.05656
1942 1.05656
1943 1.05656
1944 1.05656
1945 1.05656
1946 1.05656
1947 1.05656
1948 1.05655
1949 1.05655
1950 1.05655
1951 1.05655
1952 1.05655
1953 1.05655
1954 1.05655
1955 1.05655
1956 1.05655
1957 1.05655
1958 1.05655
1959 1.05655
1960 1.05655
1961 1.05655
1962 1.05655
1963 1.05655
1964 1.05655
1965 1.05654
1966 1.05654
1967 1.05654
1968 1.05654
1969 1.05654
1970 1.05654
1971 1.05654
1972 1.05654
1973 1.05654
1974 1.05654
1975 1.05654
1976 1.05654
1977 1.05654
1978 1.05654
1979 1.05654
1980 1.05654
1981 1.05653
1982 1.05653
1983 1.05653
1984 1.05653
1985 1.05653
1986 1.05653
1987 1.05653
1988 1.05653
1989 1.05653
1990 1.05653
1991 1.05653
1992 1.05653
1993 1.05653
1994 1.05653
1995 1.05653
1996 1.05653
1997 1.05653
1998 1.05652
1999 1.05652
2000 1.05652
2001 1.05652
2002 1.05652
2003 1.05652
2004 1.05652
2005 1.05652
2006 1.05652
2007 1.05652
2008 1.05652
2009 1.05652
2010 1.05652
2011 1.05652
2012 1.05652
2013 1.05652
2014 1.05652
2015 1.05651
2016 1.05651
2017 1.05651
2018 1.05651
2019 1.05651
2020 1.05651
2021 1.05651
2022 1.05651
2023 1.05651
2024 1.05651
2025 1.05651
2026 1.05651
2027 1.05651
2028 1.05651
2029 1.05651
2030 1.05651
2031 1.0565
2032 1.0565
2033 1.0565
2034 1.0565
2035 1.0565
2036 1.0565
2037 1.0565
2038 1.0565
2039 1.0565
2040 1.0565
2041 1.0565
2042 1.0565
2043 1.0565
2044 1.0565
2045 1.0565
2046 1.0565
2047 1.0565
2048 1.05649
2049 1.05649
2050 1.05649
2051 1.05649
2052 1.05649
2053 1.05649
2054 1.05649
2055 1.05649
2056 1.05649
2057 1.05649
2058 1.05649
2059 1.05649
2060 1.05649
2061 1.05649
2062 1.05649
2063 1.05649
2064 1.05648
2065 1.05648
2066 1.05648
2067 1.05648
2068 1.05648
2069 1.05648
2070 1.05648
2071 1.05648
2072 1.05648
2073 1.05648
2074 1.05648
2075 1.05648
2076 1.05648
2077 1.05648
2078 1.05648
2079 1.05648
2080 1.05648
2081 1.05647
2082 1.05647
2083 1.05647
2084 1.05647
2085 1.05647
2086 1.05647
2087 1.05647
2088 1.05647
2089 1.05647
2090 1.05647
2091 1.05647
2092 1.05647
2093 1.05647
2094 1.05647
2095 1.05647
2096 1.05647
2097 1.05646
2098 1.05646
2099 1.05646
2100 1.05646
2101 1.05646
2102 1.05646
2103 1.05646
2104 1.05646
2105 1.05646
2106 1.05646
2107 1.05646
2108 1.05646
2109 1.05646
2110 1.05646
2111 1.05646
2112 1.05646
2113 1.05646
2114 1.05645
2115 1.05645
2116 1.05645
2117 1.05645
2118 1.05645
2119 1.05645
2120 1.05645
2121 1.05645
2122 1.05645
2123 1.05645
2124 1.05645
2125 1.05645
2126 1.05645
2127 1.05645
2128 1.05645
2129 1.05645
2130 1.05644
2131 1.05644
2132 1.05644
2133 1.05644
2134 1.05644
2135 1.05644
2136 1.05644
2137 1.05644
2138 1.05644
2139 1.05644
2140 1.05644
2141 1.05644
2142 1.05644
2143 1.05644
2144 1.05644
2145 1.05644
2146 1.05644
2147 1.05643
2148 1.05643
2149 1.05643
2150 1.05643
2151 1.05643
2152 1.05643
2153 1.05643
2154 1.05643
2155 1.05643
2156 1.05643
2157 1.05643
2158 1.05643
2159 1.05643
2160 1.05643
2161 1.05643
2162 1.05643
2163 1.05642
2164 1.05642
2165 1.05642
2166 1.05642
2167 1.05642
2168 1.05642
2169 1.05642
2170 1.05642
2171 1.05642
2172 1.05642
2173 1.05642
2174 1.05642
2175 1.05642
2176 1.05642
2177 1.05642
2178 1.05642
2179 1.05642
2180 1.05641
2181 1.05641
2182 1.05641
2183 1.05641
2184 1.05641
2185 1.05641
2186 1.05641
2187 1.05641
2188 1.05641
2189 1.05641
2190 1.05641
2191 1.05641
2192 1.05641
2193 1.05641
2194 1.05641
2195 1.05641
2196 1.0564
2197 1.0564
2198 1.0564
2199 1.0564
2200 1.0564
2201 1.0564
2202 1.0564
2203 1.0564
2204 1.0564
2205 1.0564
2206 1.0564
2207 1.0564
2208 1.0564
2209 1.0564
2210 1.0564
2211 1.0564
2212 1.0564
2213 1.05639
2214 1.05639
2215 1.05639
2216 1.05639
2217 1.05639
2218 1.05639
2219 1.05639
2220 1.05639
2221 1.05639
2222 1.05639
2223 1.05639
2224 1.05639
2225 1.05639
2226 1.05639
2227 1.05639
2228 1.05639
2229 1.05638
2230 1.05638
2231 1.05638
2232 1.05638
2233 1.05638
2234 1.05638
2235 1.05638
2236 1.05638
2237 1.05638
2238 1.05638
2239 1.05638
2240 1.05638
2241 1.05638
2242 1.05638
2243 1.05638
2244 1.05638
2245 1.05638
2246 1.05637
2247 1.05637
2248 1.05637
2249 1.05637
2250 1.05637
2251 1.05637
2252 1.05637
2253 1.05637
2254 1.05637
2255 1.05637
2256 1.05637
2257 1.05637
2258 1.05637
2259 1.05637
2260 1.05637
2261 1.05637
2262 1.05636
2263 1.05636
2264 1.05636
2265 1.05636
2266 1.05636
2267 1.05636
2268 1.05636
2269 1.05636
2270 1.05636
2271 1.05636
2272 1.05636
2273 1.05636
2274 1.05636
2275 1.05636
2276 1.05636
2277 1.05636
2278 1.05636
2279 1.05635
2280 1.05635
2281 1.05635
2282 1.05635
2283 1.05635
2284 1.05635
2285 1.05635
2286 1.05635
2287 1.05635
2288 1.05635
2289 1.05635
2290 1.05635
2291 1.05635
2292 1.05635
2293 1.05635
2294 1.05635
2295 1.05634
2296 1.05634
2297 1.05634
2298 1.05634
2299 1.05634
2300 1.05634
2301 1.05634
2302 1.05634
2303 1.05634
2304 1.05634
2305 1.05634
2306 1.05634
2307 1.05634
2308 1.05634
2309 1.05634
2310 1.05634
2311 1.05634
2312 1.05633
2313 1.05633
2314 1.05633
2315 1.05633
2316 1.05633
2317 1.05633
2318 1.05633
2319 1.05633
2320 1.05633
2321 1.05633
2322 1.05633
2323 1.05633
2324 1.05633
2325 1.05633
2326 1.05633
2327 1.05633
2328 1.05632
2329 1.05632
2330 1.05632
2331 1.05632
2332 1.05632
2333 1.05632
2334 1.05632
2335 1.05632
2336 1.05632
2337 1.05632
2338 1.05632
2339 1.05632
2340 1.05632
2341 1.05632
2342 1.05632
2343 1.05632
2344 1.05632
2345 1.05631
2346 1.05631
2347 1.05631
2348 1.05631
2349 1.05631
2350 1.05631
2351 1.05631
2352 1.05631
2353 1.05631
2354 1.05631
2355 1.05631
2356 1.05631
2357 1.05631
2358 1.05631
2359 1.05631
2360 1.05631
2361 1.0563
2362 1.0563
2363 1.0563
2364 1.0563
2365 1.0563
2366 1.0563
2367 1.0563
2368 1.0563
2369 1.0563
2370 1.0563
2371 1.0563
2372 1.0563
2373 1.0563
2374 1.0563
2375 1.0563
2376 1.0563
2377 1.0563
2378 1.05629
2379 1.05629
2380 1.05629
2381 1.05629
2382 1.05629
2383 1.05629
2384 1.05629
2385 1.05629
2386 1.05629
2387 1.05629
2388 1.05629
2389 1.05629
2390 1.05629
2391 1.05629
2392 1.05629
2393 1.05629
2394 1.05628
2395 1.05628
2396 1.05628
2397 1.05628
2398 1.05628
2399 1.05628
2400 1.05628
2401 1.05628
2402 1.05628
2403 1.05628
2404 1.05628
2405 1.05628
2406 1.05628
2407 1.05628
2408 1.05628
2409 1.05628
2410 1.05628
2411 1.05627
2412 1.05627