/*--------------------------------*- C++ -*----------------------------------*\
| =========                 |                                                 |
| \\      /  F ield         | OpenFOAM: The Open Source CFD Toolbox           |
|  \\    /   O peration     | Version:  dev                                   |
|   \\  /    A nd           | Web:      www.OpenFOAM.org                      |
|    \\/     M anipulation  |                                                 |
\*---------------------------------------------------------------------------*/
FoamFile
{
    version     2.0;
    format      ascii;
    class       volScalarField;
    location    "constant";
    object      P;
}
// * * * * * * * * * * * * * * * * * * * * * * * * * * * * * * * * * * * * * //

dimensions      [0 2 -2 0 0 0 0];

internalField   uniform 0;

boundaryField
{
    ground
    {
//        type            zeroGradient;
        type            hydrostatic;
        value           uniform 0;
        gradient        uniform 0;
        gradPcoeffName  gradPcoeff;
        buoyancyName    bf.sum;
    }
    top
    {
//        type            zeroGradient;
        type            hydrostatic;
        value           uniform 0;
        gradient        uniform 0;
        gradPcoeffName  gradPcoeff;
        buoyancyName    bf.sum;
    }
    left
    {
        type            cyclic;
    }
    right
    {
        type            cyclic;
    }
}


// ************************************************************************* //
