/*--------------------------------*- C++ -*----------------------------------*\
| =========                 |                                                 |
| \\      /  F ield         | OpenFOAM: The Open Source CFD Toolbox           |
|  \\    /   O peration     | Version:  dev                                   |
|   \\  /    A nd           | Web:      www.OpenFOAM.org                      |
|    \\/     M anipulation  |                                                 |
\*---------------------------------------------------------------------------*/
FoamFile
{
    version     2.0;
    format      ascii;
    class       volScalarField;
    location    "constant";
    object      p;
}
// * * * * * * * * * * * * * * * * * * * * * * * * * * * * * * * * * * * * * //

dimensions      [0 0 0 0 0 0 0];

internalField   uniform 1;

boundaryField
{
    ground
    {
        type            codedMixed;
        refValue        uniform 1;
        valueFraction   uniform 0;
        refGradient     uniform 0;
        name    hydrostaticP;
        code
        #{
            const scalarField z = this->patch().Cf().component(2);
            scalar scaleHeight = 25e3;
            vector g(0,0,-1/scaleHeight);
            this->refGrad() = -Foam::exp(-z/scaleHeight)*(g & this->patch().nf());
        #};
    }
    top
    {
        type            hydrostaticP;
        refValue        uniform 1;
        valueFraction   uniform 0;
        refGradient     uniform 0;
    }
    inlet
    {
        type            cyclic;
    }
    outlet
    {
        type            cyclic;
    }
}


// ************************************************************************* //
