1 0.288943
2 0.260984
3 0.241096
4 0.226473
5 0.215399
6 0.206776
7 0.199885
8 0.194238
9 0.1895
10 0.185436
11 0.181881
12 0.178716
13 0.175857
14 0.17324
15 0.17082
16 0.168565
17 0.166447
18 0.16445
19 0.162557
20 0.160758
21 0.159043
22 0.157406
23 0.155839
24 0.154339
25 0.152901
26 0.151521
27 0.150196
28 0.148922
29 0.147697
30 0.146518
31 0.145383
32 0.14429
33 0.143237
34 0.142221
35 0.141241
36 0.140295
37 0.139382
38 0.138499
39 0.137646
40 0.136822
41 0.136024
42 0.135251
43 0.134503
44 0.133778
45 0.133076
46 0.132394
47 0.131733
48 0.131091
49 0.130468
50 0.129863
51 0.129274
52 0.128702
53 0.128145
54 0.127603
55 0.127075
56 0.126561
57 0.126061
58 0.125572
59 0.125096
60 0.124632
61 0.124179
62 0.123736
63 0.123304
64 0.122882
65 0.12247
66 0.122066
67 0.121672
68 0.121286
69 0.120909
70 0.12054
71 0.120178
72 0.119824
73 0.119477
74 0.119137
75 0.118804
76 0.118478
77 0.118158
78 0.117844
79 0.117536
80 0.117234
81 0.116937
82 0.116646
83 0.116361
84 0.11608
85 0.115805
86 0.115534
87 0.115268
88 0.115007
89 0.11475
90 0.114498
91 0.11425
92 0.114006
93 0.113766
94 0.11353
95 0.113298
96 0.113069
97 0.112845
98 0.112624
99 0.112406
100 0.112192
101 0.111982
102 0.111774
103 0.11157
104 0.111369
105 0.111171
106 0.110976
107 0.110784
108 0.110595
109 0.110409
110 0.110226
111 0.110045
112 0.109867
113 0.109692
114 0.109519
115 0.109349
116 0.109181
117 0.109016
118 0.108853
119 0.108693
120 0.108535
121 0.108379
122 0.108226
123 0.108074
124 0.107925
125 0.107778
126 0.107634
127 0.107491
128 0.10735
129 0.107212
130 0.107075
131 0.106941
132 0.106808
133 0.106677
134 0.106549
135 0.106422
136 0.106297
137 0.106173
138 0.106052
139 0.105932
140 0.105814
141 0.105698
142 0.105584
143 0.105471
144 0.10536
145 0.105251
146 0.105143
147 0.105037
148 0.104932
149 0.104829
150 0.104728
151 0.104628
152 0.104529
153 0.104433
154 0.104337
155 0.104244
156 0.104151
157 0.10406
158 0.103971
159 0.103883
160 0.103796
161 0.103711
162 0.103627
163 0.103545
164 0.103464
165 0.103384
166 0.103305
167 0.103228
168 0.103152
169 0.103078
170 0.103005
171 0.102933
172 0.102862
173 0.102792
174 0.102724
175 0.102657
176 0.102591
177 0.102527
178 0.102463
179 0.102401
180 0.10234
181 0.10228
182 0.102221
183 0.102164
184 0.102107
185 0.102052
186 0.101997
187 0.101944
188 0.101892
189 0.101841
190 0.101791
191 0.101742
192 0.101694
193 0.101648
194 0.101602
195 0.101557
196 0.101513
197 0.101471
198 0.101429
199 0.101388
200 0.101348
201 0.101309
202 0.101272
203 0.101235
204 0.101199
205 0.101164
206 0.101129
207 0.101096
208 0.101064
209 0.101032
210 0.101002
211 0.100972
212 0.100944
213 0.100916
214 0.100889
215 0.100862
216 0.100837
217 0.100812
218 0.100789
219 0.100766
220 0.100744
221 0.100723
222 0.100702
223 0.100682
224 0.100663
225 0.100645
226 0.100628
227 0.100611
228 0.100595
229 0.10058
230 0.100566
231 0.100552
232 0.100539
233 0.100527
234 0.100515
235 0.100504
236 0.100494
237 0.100484
238 0.100476
239 0.100467
240 0.10046
241 0.100453
242 0.100447
243 0.100441
244 0.100436
245 0.100432
246 0.100428
247 0.100425
248 0.100422
249 0.10042
250 0.100419
251 0.100418
252 0.100418
253 0.100419
254 0.100419
255 0.100421
256 0.100423
257 0.100425
258 0.100429
259 0.100432
260 0.100436
261 0.100441
262 0.100446
263 0.100452
264 0.100458
265 0.100465
266 0.100472
267 0.100479
268 0.100487
269 0.100496
270 0.100505
271 0.100514
272 0.100524
273 0.100534
274 0.100545
275 0.100556
276 0.100568
277 0.10058
278 0.100592
279 0.100605
280 0.100618
281 0.100632
282 0.100646
283 0.10066
284 0.100675
285 0.10069
286 0.100705
287 0.100721
288 0.100737
289 0.100754
290 0.100771
291 0.100788
292 0.100805
293 0.100823
294 0.100841
295 0.10086
296 0.100879
297 0.100898
298 0.100917
299 0.100937
300 0.100957
301 0.100977
302 0.100998
303 0.101019
304 0.10104
305 0.101061
306 0.101083
307 0.101104
308 0.101127
309 0.101149
310 0.101172
311 0.101194
312 0.101218
313 0.101241
314 0.101264
315 0.101288
316 0.101312
317 0.101336
318 0.101361
319 0.101385
320 0.10141
321 0.101435
322 0.101461
323 0.101486
324 0.101512
325 0.101537
326 0.101563
327 0.101589
328 0.101616
329 0.101642
330 0.101669
331 0.101696
332 0.101723
333 0.10175
334 0.101777
335 0.101805
336 0.101832
337 0.10186
338 0.101888
339 0.101916
340 0.101944
341 0.101972
342 0.102001
343 0.102029
344 0.102058
345 0.102086
346 0.102115
347 0.102144
348 0.102173
349 0.102203
350 0.102232
351 0.102261
352 0.102291
353 0.102321
354 0.10235
355 0.10238
356 0.10241
357 0.10244
358 0.10247
359 0.1025
360 0.102531
361 0.102561
362 0.102592
363 0.102622
364 0.102653
365 0.102683
366 0.102714
367 0.102745
368 0.102776
369 0.102807
370 0.102838
371 0.102869
372 0.1029
373 0.102932
374 0.102963
375 0.102994
376 0.103026
377 0.103057
378 0.103089
379 0.10312
380 0.103152
381 0.103184
382 0.103216
383 0.103247
384 0.103279
385 0.103311
386 0.103343
387 0.103375
388 0.103407
389 0.103439
390 0.103472
391 0.103504
392 0.103536
393 0.103568
394 0.103601
395 0.103633
396 0.103666
397 0.103698
398 0.103731
399 0.103763
400 0.103796
401 0.103829
402 0.103861
403 0.103894
404 0.103927
405 0.10396
406 0.103993
407 0.104025
408 0.104058
409 0.104091
410 0.104124
411 0.104157
412 0.104191
413 0.104224
414 0.104257
415 0.10429
416 0.104323
417 0.104357
418 0.10439
419 0.104423
420 0.104457
421 0.10449
422 0.104524
423 0.104557
424 0.104591
425 0.104625
426 0.104658
427 0.104692
428 0.104726
429 0.10476
430 0.104794
431 0.104827
432 0.104861
433 0.104895
434 0.104929
435 0.104963
436 0.104998
437 0.105032
438 0.105066
439 0.1051
440 0.105135
441 0.105169
442 0.105203
443 0.105238
444 0.105272
445 0.105307
446 0.105342
447 0.105376
448 0.105411
449 0.105446
450 0.105481
451 0.105515
452 0.10555
453 0.105585
454 0.10562
455 0.105656
456 0.105691
457 0.105726
458 0.105761
459 0.105797
460 0.105832
461 0.105868
462 0.105903
463 0.105939
464 0.105974
465 0.10601
466 0.106046
467 0.106082
468 0.106118
469 0.106154
470 0.10619
471 0.106226
472 0.106262
473 0.106299
474 0.106335
475 0.106371
476 0.106408
477 0.106445
478 0.106481
479 0.106518
480 0.106555
481 0.106592
482 0.106629
483 0.106666
484 0.106703
485 0.10674
486 0.106777
487 0.106815
488 0.106852
489 0.10689
490 0.106927
491 0.106965
492 0.107003
493 0.107041
494 0.107079
495 0.107117
496 0.107155
497 0.107193
498 0.107231
499 0.10727
500 0.107308
501 0.107347
502 0.107386
503 0.107424
504 0.107463
505 0.107502
506 0.107541
507 0.10758
508 0.10762
509 0.107659
510 0.107698
511 0.107738
512 0.107777
513 0.107817
514 0.107857
515 0.107897
516 0.107937
517 0.107977
518 0.108017
519 0.108057
520 0.108097
521 0.108138
522 0.108178
523 0.108219
524 0.10826
525 0.1083
526 0.108341
527 0.108382
528 0.108423
529 0.108465
530 0.108506
531 0.108547
532 0.108589
533 0.10863
534 0.108672
535 0.108714
536 0.108755
537 0.108797
538 0.108839
539 0.108882
540 0.108924
541 0.108966
542 0.109008
543 0.109051
544 0.109094
545 0.109136
546 0.109179
547 0.109222
548 0.109265
549 0.109308
550 0.109351
551 0.109394
552 0.109437
553 0.109481
554 0.109524
555 0.109568
556 0.109611
557 0.109655
558 0.109699
559 0.109743
560 0.109787
561 0.109831
562 0.109875
563 0.109919
564 0.109964
565 0.110008
566 0.110053
567 0.110097
568 0.110142
569 0.110186
570 0.110231
571 0.110276
572 0.110321
573 0.110366
574 0.110411
575 0.110456
576 0.110502
577 0.110547
578 0.110592
579 0.110638
580 0.110683
581 0.110729
582 0.110775
583 0.110821
584 0.110866
585 0.110912
586 0.110958
587 0.111004
588 0.11105
589 0.111097
590 0.111143
591 0.111189
592 0.111235
593 0.111282
594 0.111328
595 0.111375
596 0.111422
597 0.111468
598 0.111515
599 0.111562
600 0.111609
601 0.111656
602 0.111703
603 0.11175
604 0.111797
605 0.111844
606 0.111891
607 0.111939
608 0.111986
609 0.112033
610 0.112081
611 0.112128
612 0.112176
613 0.112224
614 0.112271
615 0.112319
616 0.112367
617 0.112415
618 0.112463
619 0.11251
620 0.112559
621 0.112607
622 0.112655
623 0.112703
624 0.112751
625 0.112799
626 0.112848
627 0.112896
628 0.112945
629 0.112993
630 0.113042
631 0.11309
632 0.113139
633 0.113188
634 0.113236
635 0.113285
636 0.113334
637 0.113383
638 0.113432
639 0.113481
640 0.11353
641 0.113579
642 0.113628
643 0.113677
644 0.113727
645 0.113776
646 0.113825
647 0.113875
648 0.113924
649 0.113974
650 0.114023
651 0.114073
652 0.114123
653 0.114173
654 0.114222
655 0.114272
656 0.114322
657 0.114372
658 0.114422
659 0.114472
660 0.114522
661 0.114573
662 0.114623
663 0.114673
664 0.114724
665 0.114774
666 0.114825
667 0.114875
668 0.114926
669 0.114976
670 0.115027
671 0.115078
672 0.115129
673 0.11518
674 0.115231
675 0.115282
676 0.115333
677 0.115384
678 0.115435
679 0.115487
680 0.115538
681 0.11559
682 0.115641
683 0.115693
684 0.115744
685 0.115796
686 0.115848
687 0.1159
688 0.115952
689 0.116004
690 0.116056
691 0.116108
692 0.11616
693 0.116213
694 0.116265
695 0.116317
696 0.11637
697 0.116423
698 0.116475
699 0.116528
700 0.116581
701 0.116634
702 0.116687
703 0.11674
704 0.116793
705 0.116847
706 0.1169
707 0.116954
708 0.117007
709 0.117061
710 0.117115
711 0.117168
712 0.117222
713 0.117276
714 0.11733
715 0.117385
716 0.117439
717 0.117493
718 0.117548
719 0.117603
720 0.117657
721 0.117712
722 0.117767
723 0.117822
724 0.117877
725 0.117932
726 0.117988
727 0.118043
728 0.118099
729 0.118154
730 0.11821
731 0.118266
732 0.118322
733 0.118378
734 0.118434
735 0.118491
736 0.118547
737 0.118604
738 0.11866
739 0.118717
740 0.118774
741 0.118831
742 0.118888
743 0.118946
744 0.119003
745 0.11906
746 0.119118
747 0.119176
748 0.119234
749 0.119292
750 0.11935
751 0.119408
752 0.119467
753 0.119526
754 0.119584
755 0.119643
756 0.119702
757 0.119761
758 0.119821
759 0.11988
760 0.11994
761 0.119999
762 0.120059
763 0.120119
764 0.120179
765 0.120239
766 0.1203
767 0.120361
768 0.120421
769 0.120482
770 0.120543
771 0.120604
772 0.120666
773 0.120727
774 0.120789
775 0.120851
776 0.120913
777 0.120975
778 0.121037
779 0.1211
780 0.121162
781 0.121225
782 0.121288
783 0.121351
784 0.121414
785 0.121478
786 0.121541
787 0.121605
788 0.121669
789 0.121733
790 0.121798
791 0.121862
792 0.121927
793 0.121992
794 0.122057
795 0.122122
796 0.122187
797 0.122253
798 0.122319
799 0.122384
800 0.122451
801 0.122517
802 0.122583
803 0.12265
804 0.122717
805 0.122784
806 0.122851
807 0.122919
808 0.122986
809 0.123054
810 0.123122
811 0.12319
812 0.123259
813 0.123327
814 0.123396
815 0.123465
816 0.123534
817 0.123604
818 0.123673
819 0.123743
820 0.123813
821 0.123883
822 0.123954
823 0.124024
824 0.124095
825 0.124166
826 0.124238
827 0.124309
828 0.124381
829 0.124453
830 0.124525
831 0.124597
832 0.12467
833 0.124743
834 0.124816
835 0.124889
836 0.124962
837 0.125036
838 0.12511
839 0.125184
840 0.125258
841 0.125333
842 0.125408
843 0.125483
844 0.125558
845 0.125634
846 0.125709
847 0.125785
848 0.125862
849 0.125938
850 0.126015
851 0.126092
852 0.126169
853 0.126246
854 0.126324
855 0.126402
856 0.12648
857 0.126558
858 0.126637
859 0.126716
860 0.126795
861 0.126874
862 0.126954
863 0.127033
864 0.127114
865 0.127194
866 0.127274
867 0.127355
868 0.127436
869 0.127518
870 0.127599
871 0.127681
872 0.127763
873 0.127846
874 0.127929
875 0.128011
876 0.128095
877 0.128178
878 0.128262
879 0.128346
880 0.12843
881 0.128515
882 0.128599
883 0.128684
884 0.12877
885 0.128855
886 0.128941
887 0.129027
888 0.129114
889 0.1292
890 0.129287
891 0.129374
892 0.129462
893 0.12955
894 0.129638
895 0.129726
896 0.129815
897 0.129904
898 0.129993
899 0.130082
900 0.130172
901 0.130262
902 0.130352
903 0.130443
904 0.130534
905 0.130625
906 0.130716
907 0.130808
908 0.1309
909 0.130992
910 0.131085
911 0.131178
912 0.131271
913 0.131364
914 0.131458
915 0.131552
916 0.131646
917 0.131741
918 0.131836
919 0.131931
920 0.132026
921 0.132122
922 0.132218
923 0.132315
924 0.132411
925 0.132508
926 0.132605
927 0.132703
928 0.132801
929 0.132899
930 0.132997
931 0.133096
932 0.133195
933 0.133294
934 0.133393
935 0.133493
936 0.133593
937 0.133694
938 0.133795
939 0.133895
940 0.133997
941 0.134098
942 0.1342
943 0.134302
944 0.134405
945 0.134507
946 0.13461
947 0.134714
948 0.134817
949 0.134921
950 0.135025
951 0.13513
952 0.135235
953 0.13534
954 0.135445
955 0.13555
956 0.135656
957 0.135762
958 0.135869
959 0.135976
960 0.136082
961 0.13619
962 0.136297
963 0.136405
964 0.136513
965 0.136622
966 0.13673
967 0.136839
968 0.136948
969 0.137058
970 0.137167
971 0.137277
972 0.137388
973 0.137498
974 0.137609
975 0.13772
976 0.137831
977 0.137943
978 0.138055
979 0.138167
980 0.138279
981 0.138392
982 0.138505
983 0.138618
984 0.138731
985 0.138845
986 0.138959
987 0.139073
988 0.139188
989 0.139302
990 0.139417
991 0.139533
992 0.139648
993 0.139764
994 0.13988
995 0.139996
996 0.140112
997 0.140229
998 0.140346
999 0.140463
1000 0.140581
1001 0.140698
1002 0.140816
1003 0.140934
1004 0.141053
1005 0.141171
1006 0.14129
1007 0.141409
1008 0.141529
1009 0.141648
1010 0.141768
1011 0.141888
1012 0.142009
1013 0.142129
1014 0.14225
1015 0.142371
1016 0.142492
1017 0.142614
1018 0.142736
1019 0.142858
1020 0.14298
1021 0.143102
1022 0.143225
1023 0.143348
1024 0.143471
1025 0.143595
1026 0.143718
1027 0.143842
1028 0.143966
1029 0.144091
1030 0.144215
1031 0.14434
1032 0.144465
1033 0.14459
1034 0.144716
1035 0.144842
1036 0.144968
1037 0.145094
1038 0.14522
1039 0.145347
1040 0.145474
1041 0.145601
1042 0.145728
1043 0.145856
1044 0.145984
1045 0.146112
1046 0.146241
1047 0.146369
1048 0.146498
1049 0.146627
1050 0.146756
1051 0.146886
1052 0.147016
1053 0.147146
1054 0.147276
1055 0.147407
1056 0.147538
1057 0.147669
1058 0.1478
1059 0.147932
1060 0.148064
1061 0.148196
1062 0.148328
1063 0.148461
1064 0.148594
1065 0.148727
1066 0.14886
1067 0.148994
1068 0.149128
1069 0.149262
1070 0.149396
1071 0.149531
1072 0.149666
1073 0.149801
1074 0.149937
1075 0.150073
1076 0.150209
1077 0.150345
1078 0.150482
1079 0.150619
1080 0.150756
1081 0.150894
1082 0.151031
1083 0.151169
1084 0.151308
1085 0.151446
1086 0.151585
1087 0.151725
1088 0.151864
1089 0.152004
1090 0.152144
1091 0.152285
1092 0.152425
1093 0.152567
1094 0.152708
1095 0.15285
1096 0.152992
1097 0.153134
1098 0.153277
1099 0.15342
1100 0.153563
1101 0.153707
1102 0.15385
1103 0.153995
1104 0.154139
1105 0.154284
1106 0.15443
1107 0.154575
1108 0.154721
1109 0.154868
1110 0.155014
1111 0.155161
1112 0.155309
1113 0.155456
1114 0.155605
1115 0.155753
1116 0.155902
1117 0.156051
1118 0.156201
1119 0.15635
1120 0.156501
1121 0.156651
1122 0.156803
1123 0.156954
1124 0.157106
1125 0.157258
1126 0.157411
1127 0.157564
1128 0.157717
1129 0.157871
1130 0.158025
1131 0.15818
1132 0.158335
1133 0.15849
1134 0.158646
1135 0.158802
1136 0.158959
1137 0.159116
1138 0.159274
1139 0.159431
1140 0.15959
1141 0.159749
1142 0.159908
1143 0.160068
1144 0.160228
1145 0.160388
1146 0.16055
1147 0.160711
1148 0.160873
1149 0.161035
1150 0.161198
1151 0.161362
1152 0.161526
1153 0.16169
1154 0.161855
1155 0.16202
1156 0.162186
1157 0.162352
1158 0.162519
1159 0.162686
1160 0.162854
1161 0.163022
1162 0.163191
1163 0.16336
1164 0.16353
1165 0.1637
1166 0.163871
1167 0.164042
1168 0.164214
1169 0.164386
1170 0.164559
1171 0.164733
1172 0.164907
1173 0.165081
1174 0.165256
1175 0.165432
1176 0.165608
1177 0.165785
1178 0.165962
1179 0.16614
1180 0.166318
1181 0.166497
1182 0.166677
1183 0.166857
1184 0.167038
1185 0.167219
1186 0.167401
1187 0.167584
1188 0.167767
1189 0.167951
1190 0.168135
1191 0.16832
1192 0.168506
1193 0.168692
1194 0.168879
1195 0.169067
1196 0.169255
1197 0.169444
1198 0.169633
1199 0.169823
1200 0.170014
1201 0.170205
1202 0.170397
1203 0.17059
1204 0.170784
1205 0.170978
1206 0.171172
1207 0.171368
1208 0.171564
1209 0.171761
1210 0.171958
1211 0.172157
1212 0.172356
1213 0.172555
1214 0.172756
1215 0.172957
1216 0.173159
1217 0.173361
1218 0.173565
1219 0.173769
1220 0.173974
1221 0.174179
1222 0.174386
1223 0.174593
1224 0.1748
1225 0.175009
1226 0.175219
1227 0.175429
1228 0.17564
1229 0.175852
1230 0.176064
1231 0.176278
1232 0.176492
1233 0.176707
1234 0.176923
1235 0.177139
1236 0.177357
1237 0.177575
1238 0.177794
1239 0.178014
1240 0.178235
1241 0.178457
1242 0.17868
1243 0.178903
1244 0.179128
1245 0.179353
1246 0.179579
1247 0.179806
1248 0.180034
1249 0.180263
1250 0.180493
1251 0.180724
1252 0.180955
1253 0.181188
1254 0.181422
1255 0.181656
1256 0.181891
1257 0.182128
1258 0.182365
1259 0.182604
1260 0.182843
1261 0.183083
1262 0.183325
1263 0.183567
1264 0.18381
1265 0.184055
1266 0.1843
1267 0.184547
1268 0.184794
1269 0.185043
1270 0.185292
1271 0.185543
1272 0.185794
1273 0.186047
1274 0.186301
1275 0.186556
1276 0.186812
1277 0.187069
1278 0.187327
1279 0.187587
1280 0.187847
1281 0.188109
1282 0.188372
1283 0.188636
1284 0.188901
1285 0.189167
1286 0.189435
1287 0.189703
1288 0.189973
1289 0.190244
1290 0.190517
1291 0.19079
1292 0.191065
1293 0.191341
1294 0.191618
1295 0.191896
1296 0.192176
1297 0.192457
1298 0.19274
1299 0.193023
1300 0.193308
1301 0.193594
1302 0.193882
1303 0.194171
1304 0.194461
1305 0.194753
1306 0.195046
1307 0.19534
1308 0.195636
1309 0.195933
1310 0.196231
1311 0.196531
1312 0.196832
1313 0.197135
1314 0.197439
1315 0.197745
1316 0.198052
1317 0.198361
1318 0.198671
1319 0.198982
1320 0.199295
1321 0.19961
1322 0.199926
1323 0.200244
1324 0.200563
1325 0.200884
1326 0.201206
1327 0.20153
1328 0.201856
1329 0.202183
1330 0.202512
1331 0.202842
1332 0.203174
1333 0.203508
1334 0.203843
1335 0.20418
1336 0.204519
1337 0.204859
1338 0.205201
1339 0.205545
1340 0.205891
1341 0.206238
1342 0.206587
1343 0.206938
1344 0.20729
