1 0.310642
2 0.287356
3 0.271059
4 0.259355
5 0.250764
6 0.244332
7 0.239427
8 0.235615
9 0.232596
10 0.230159
11 0.228154
12 0.22647
13 0.225031
14 0.223778
15 0.222669
16 0.221673
17 0.220769
18 0.219938
19 0.219168
20 0.218449
21 0.217774
22 0.217139
23 0.216538
24 0.215968
25 0.215427
26 0.214913
27 0.214423
28 0.213958
29 0.213515
30 0.213094
31 0.212693
32 0.212313
33 0.211953
34 0.211611
35 0.211288
36 0.210983
37 0.210695
38 0.210425
39 0.210171
40 0.209934
41 0.209714
42 0.209509
43 0.20932
44 0.209146
45 0.208987
46 0.208843
47 0.208714
48 0.208599
49 0.208498
50 0.208412
51 0.208339
52 0.20828
53 0.208234
54 0.208202
55 0.208183
56 0.208177
57 0.208184
58 0.208203
59 0.208236
60 0.208281
61 0.208338
62 0.208408
63 0.208491
64 0.208585
65 0.208692
66 0.208812
67 0.208943
68 0.209087
69 0.209243
70 0.209411
71 0.209591
72 0.209783
73 0.209988
74 0.210205
75 0.210435
76 0.210677
77 0.210931
78 0.211198
79 0.211478
80 0.211771
81 0.212076
82 0.212395
83 0.212727
84 0.213073
85 0.213432
86 0.213804
87 0.214191
88 0.214592
89 0.215007
90 0.215436
91 0.215881
92 0.21634
93 0.216815
94 0.217305
95 0.217811
96 0.218333
97 0.218872
98 0.219427
99 0.219998
100 0.220588
101 0.221194
102 0.221818
103 0.222461
104 0.223122
105 0.223801
106 0.2245
107 0.225218
108 0.225956
109 0.226713
110 0.227491
111 0.22829
112 0.22911
113 0.229951
114 0.230813
115 0.231698
116 0.232605
117 0.233535
118 0.234487
119 0.235463
120 0.236463
121 0.237486
122 0.238534
123 0.239607
124 0.240704
125 0.241827
126 0.242975
127 0.24415
128 0.245351
129 0.246578
130 0.247833
131 0.249115
132 0.250425
133 0.251763
134 0.25313
135 0.254525
136 0.255951
137 0.257406
138 0.258891
139 0.260407
140 0.261955
141 0.263534
142 0.265145
143 0.26679
144 0.268467
145 0.270179
146 0.271926
147 0.273708
148 0.275526
149 0.27738
150 0.279272
151 0.281203
152 0.283173
153 0.285182
154 0.287233
155 0.289326
156 0.291461
157 0.293641
158 0.295866
159 0.298138
160 0.300457
161 0.302826
162 0.305245
163 0.307716
164 0.31024
165 0.31282
166 0.315457
167 0.318153
168 0.32091
169 0.323729
170 0.326613
171 0.329565
172 0.332586
173 0.33568
174 0.338848
175 0.342094
176 0.345421
177 0.348832
178 0.35233
179 0.355919
180 0.359602
181 0.363383
182 0.367268
183 0.371259
184 0.375362
185 0.379582
186 0.383925
187 0.388395
188 0.392999
189 0.397744
190 0.402636
191 0.407683
192 0.412892
193 0.418273
194 0.423833
195 0.429583
196 0.435533
197 0.441693
198 0.448077
199 0.454697
200 0.461567
201 0.468702
202 0.476117
203 0.483832
204 0.491864
205 0.500235
206 0.508967
207 0.518085
208 0.527616
209 0.537589
210 0.548035
211 0.558992
212 0.570497
213 0.582593
214 0.595328
215 0.608755
216 0.62293
217 0.63792
218 0.653795
219 0.670635
220 0.688532
221 0.707585
222 0.727907
223 0.749626
224 0.772885
225 0.797846
226 0.824691
227 0.85363
228 0.884895
229 0.918753
230 0.955503
231 0.995482
232 1.03907
233 1.08668
234 1.13877
235 1.19582
236 1.25832
237 1.32675
238 1.40146
239 1.48262
240 1.57002
241 1.66278
242 1.75899
243 1.85519
244 1.94584
245 2.02305
246 2.07719
247 2.09895
248 2.08298
249 2.03126
250 1.95334
251 1.8622
252 1.76919
253 1.6818
254 1.6038
255 1.53642
256 1.47948
257 1.43213
258 1.39325
259 1.36171
260 1.33644
261 1.31652
262 1.3011
263 1.28947
264 1.28092
265 1.27479
266 1.27057
267 1.26775
268 1.26595
269 1.26479
270 1.26399
271 1.26332
272 1.26262
273 1.26176
274 1.26065
275 1.25923
276 1.25747
277 1.25537
278 1.25295
279 1.2502
280 1.2472
281 1.24398
282 1.2406
283 1.2371
284 1.23353
285 1.22992
286 1.22631
287 1.22272
288 1.21918
289 1.21572
290 1.21233
291 1.20904
292 1.20589
293 1.20283
294 1.19986
295 1.19699
296 1.1942
297 1.1915
298 1.18888
299 1.18633
300 1.18385
301 1.18144
302 1.17908
303 1.17678
304 1.17454
305 1.17234
306 1.17019
307 1.16808
308 1.16601
309 1.16398
310 1.16199
311 1.16003
312 1.15811
313 1.15622
314 1.15436
315 1.15253
316 1.15073
317 1.14895
318 1.14719
319 1.14544
320 1.1437
321 1.14199
322 1.14028
323 1.13858
324 1.13688
325 1.1352
326 1.13361
327 1.13206
328 1.13053
329 1.12902
330 1.12752
331 1.12604
332 1.12456
333 1.12306
334 1.12155
335 1.12003
336 1.11854
337 1.11706
338 1.11562
339 1.1142
340 1.1128
341 1.11143
342 1.11015
343 1.10887
344 1.10754
345 1.10622
346 1.10491
347 1.10362
348 1.10235
349 1.1011
350 1.09988
351 1.09867
352 1.09749
353 1.09634
354 1.09515
355 1.09395
356 1.09277
357 1.0916
358 1.09044
359 1.08931
360 1.08819
361 1.08708
362 1.08601
363 1.08498
364 1.08389
365 1.0828
366 1.08172
367 1.08068
368 1.07962
369 1.07857
370 1.07754
371 1.07651
372 1.07551
373 1.07453
374 1.07353
375 1.07255
376 1.07158
377 1.07062
378 1.06966
379 1.06871
380 1.06774
381 1.06678
382 1.06583
383 1.06491
384 1.06398
385 1.06307
386 1.06216
387 1.06126
388 1.06036
389 1.05947
390 1.05858
391 1.05769
392 1.05679
393 1.05589
394 1.05506
395 1.05421
396 1.05336
397 1.05252
398 1.05168
399 1.05085
400 1.05002
401 1.04919
402 1.04834
403 1.04749
404 1.04671
405 1.04592
406 1.04513
407 1.04434
408 1.04355
409 1.04276
410 1.04198
411 1.04118
412 1.04041
413 1.03961
414 1.03887
415 1.03812
416 1.03737
417 1.03663
418 1.03588
419 1.03514
420 1.0344
421 1.03366
422 1.03292
423 1.03216
424 1.03143
425 1.03073
426 1.03002
427 1.02932
428 1.02861
429 1.0279
430 1.0272
431 1.0265
432 1.0258
433 1.02511
434 1.02439
435 1.02373
436 1.02306
437 1.02239
438 1.02172
439 1.02105
440 1.02038
441 1.01972
442 1.01905
443 1.01839
444 1.01774
445 1.01707
446 1.01641
447 1.01576
448 1.01513
449 1.01449
450 1.01385
451 1.01322
452 1.01258
453 1.01195
454 1.01133
455 1.0107
456 1.01009
457 1.00947
458 1.00885
459 1.00824
460 1.00763
461 1.00703
462 1.00642
463 1.00582
464 1.00522
465 1.00462
466 1.00402
467 1.00344
468 1.00284
469 1.00226
470 1.00167
471 1.00109
472 1.00051
473 0.999925
474 0.999344
475 0.998769
476 0.998194
477 0.997627
478 0.997065
479 0.996491
480 0.995924
481 0.99536
482 0.994796
483 0.994236
484 0.993685
485 0.993132
486 0.992584
487 0.992037
488 0.991496
489 0.990968
490 0.990419
491 0.989883
492 0.989341
493 0.988801
494 0.988268
495 0.987736
496 0.987209
497 0.986684
498 0.986154
499 0.985632
500 0.985103
501 0.984601
502 0.984075
503 0.983557
504 0.983041
505 0.982529
506 0.982023
507 0.981517
508 0.981014
509 0.980512
510 0.980011
511 0.979508
512 0.979
513 0.978487
514 0.977983
515 0.977483
516 0.97699
517 0.976501
518 0.976012
519 0.975521
520 0.975041
521 0.974563
522 0.974086
523 0.973616
524 0.973123
525 0.972636
526 0.972155
527 0.971676
528 0.9712
529 0.970726
530 0.970257
531 0.969787
532 0.969329
533 0.968872
534 0.968417
535 0.967968
536 0.967495
537 0.967028
538 0.966566
539 0.966106
540 0.965649
541 0.965195
542 0.964745
543 0.964293
544 0.963844
545 0.963406
546 0.962972
547 0.962542
548 0.962093
549 0.961641
550 0.961195
551 0.960753
552 0.960313
553 0.959877
554 0.959446
555 0.95901
556 0.958578
557 0.958147
558 0.957719
559 0.957304
560 0.956893
561 0.95646
562 0.956033
563 0.955608
564 0.955184
565 0.95476
566 0.954339
567 0.953918
568 0.953499
569 0.953087
570 0.952676
571 0.952272
572 0.951874
573 0.951446
574 0.951025
575 0.95061
576 0.950199
577 0.94979
578 0.94939
579 0.948987
580 0.948585
581 0.948187
582 0.947796
583 0.947411
584 0.947028
585 0.946648
586 0.946238
587 0.945835
588 0.94544
589 0.945048
590 0.944654
591 0.944262
592 0.943872
593 0.943483
594 0.943097
595 0.942716
596 0.942341
597 0.941968
598 0.941594
599 0.941209
600 0.940824
601 0.94044
602 0.94006
603 0.93968
604 0.939301
605 0.938925
606 0.93855
607 0.938176
608 0.937805
609 0.937443
610 0.937082
611 0.936721
612 0.936342
613 0.935968
614 0.935596
615 0.935229
616 0.934863
617 0.934501
618 0.934139
619 0.933778
620 0.933419
621 0.933061
622 0.932709
623 0.932364
624 0.932019
625 0.931654
626 0.931296
627 0.930936
628 0.930581
629 0.930227
630 0.929876
631 0.92953
632 0.929181
633 0.928834
634 0.928488
635 0.928144
636 0.927807
637 0.927471
638 0.92712
639 0.92678
640 0.926434
641 0.92609
642 0.925749
643 0.925408
644 0.925069
645 0.924733
646 0.924396
647 0.924065
648 0.92373
649 0.923397
650 0.923069
651 0.922756
652 0.922408
653 0.92208
654 0.921751
655 0.921418
656 0.921086
657 0.920757
658 0.92043
659 0.920102
660 0.919779
661 0.919457
662 0.91914
663 0.918831
664 0.918522
665 0.918201
666 0.917883
667 0.917563
668 0.917243
669 0.916921
670 0.9166
671 0.916278
672 0.915958
673 0.915638
674 0.91532
675 0.915007
676 0.914693
677 0.914391
678 0.914095
679 0.91378
680 0.913453
681 0.913143
682 0.912833
683 0.912523
684 0.912213
685 0.911903
686 0.911593
687 0.911285
688 0.910978
689 0.910672
690 0.91037
691 0.910068
692 0.909777
693 0.909476
694 0.909174
695 0.908875
696 0.908577
697 0.908278
698 0.90798
699 0.907682
700 0.907381
701 0.907082
702 0.906785
703 0.90649
704 0.906195
705 0.905903
706 0.905609
707 0.905324
708 0.905024
709 0.904733
710 0.904444
711 0.904155
712 0.903866
713 0.903578
714 0.903289
715 0.903
716 0.902712
717 0.902425
718 0.902138
719 0.901852
720 0.901568
721 0.901294
722 0.901008
723 0.900728
724 0.900447
725 0.900166
726 0.899884
727 0.899603
728 0.899321
729 0.899037
730 0.898758
731 0.898479
732 0.898198
733 0.89792
734 0.897642
735 0.897371
736 0.897096
737 0.896825
738 0.896551
739 0.896278
740 0.896006
741 0.895733
742 0.895459
743 0.895187
744 0.894913
745 0.89464
746 0.894368
747 0.894095
748 0.893824
749 0.893554
750 0.893285
751 0.893016
752 0.892747
753 0.892484
754 0.892219
755 0.891956
756 0.891691
757 0.891428
758 0.891163
759 0.890897
760 0.890635
761 0.890371
762 0.890107
763 0.889843
764 0.88958
765 0.889318
766 0.889061
767 0.888804
768 0.888545
769 0.888289
770 0.888033
771 0.887777
772 0.88752
773 0.887265
774 0.887008
775 0.886751
776 0.886493
777 0.886237
778 0.885982
779 0.885726
780 0.885466
781 0.885206
782 0.88496
783 0.884712
784 0.884463
785 0.884215
786 0.883966
787 0.883717
788 0.883469
789 0.88322
790 0.882968
791 0.882718
792 0.882466
793 0.882218
794 0.881967
795 0.881717
796 0.881464
797 0.881221
798 0.880981
799 0.88074
800 0.880498
801 0.880253
802 0.880009
803 0.879768
804 0.879526
805 0.879285
806 0.879043
807 0.878802
808 0.878561
809 0.87832
810 0.878075
811 0.877832
812 0.877585
813 0.877356
814 0.877122
815 0.876882
816 0.876644
817 0.876408
818 0.876172
819 0.875936
820 0.8757
821 0.875465
822 0.875227
823 0.874992
824 0.874756
825 0.87452
826 0.87428
827 0.874039
828 0.873797
829 0.87357
830 0.873341
831 0.873111
832 0.872877
833 0.872646
834 0.872418
835 0.872189
836 0.87196
837 0.871732
838 0.871504
839 0.871275
840 0.871044
841 0.870812
842 0.870582
843 0.870347
844 0.870118
845 0.869898
846 0.869676
847 0.869452
848 0.869228
849 0.869004
850 0.86878
851 0.868555
852 0.868331
853 0.868107
854 0.867883
855 0.867661
856 0.867436
857 0.867213
858 0.866989
859 0.866759
860 0.866531
861 0.86632
862 0.866104
863 0.865887
864 0.865669
865 0.86545
866 0.865232
867 0.865014
868 0.864794
869 0.864575
870 0.864357
871 0.864139
872 0.863919
873 0.8637
874 0.863478
875 0.863256
876 0.863027
877 0.862822
878 0.862613
879 0.862402
880 0.862189
881 0.861976
882 0.861763
883 0.86155
884 0.861336
885 0.861124
886 0.860911
887 0.860699
888 0.860483
889 0.860272
890 0.86006
891 0.859848
892 0.859627
893 0.859418
894 0.859216
895 0.85901
896 0.858804
897 0.858596
898 0.858388
899 0.85818
900 0.857972
901 0.857763
902 0.857553
903 0.857343
904 0.857134
905 0.856926
906 0.856717
907 0.856508
908 0.856299
909 0.856082
910 0.855887
911 0.855688
912 0.855486
913 0.855283
914 0.85508
915 0.854877
916 0.854673
917 0.85447
918 0.854265
919 0.854061
920 0.853858
921 0.853654
922 0.853451
923 0.853245
924 0.85304
925 0.852833
926 0.852618
927 0.85243
928 0.852235
929 0.852038
930 0.851841
931 0.851643
932 0.851446
933 0.851248
934 0.85105
935 0.850852
936 0.850653
937 0.850455
938 0.850255
939 0.850057
940 0.849858
941 0.84966
942 0.849463
943 0.849262
944 0.849079
945 0.848882
946 0.848686
947 0.848493
948 0.848299
949 0.848104
950 0.84791
951 0.847715
952 0.84752
953 0.847325
954 0.847131
955 0.846936
956 0.846741
957 0.846548
958 0.846354
959 0.84616
960 0.845966
961 0.845775
962 0.845585
963 0.845393
964 0.845202
965 0.845013
966 0.844824
967 0.844634
968 0.844445
969 0.844255
970 0.844066
971 0.843876
972 0.843686
973 0.843497
974 0.843307
975 0.843118
976 0.842927
977 0.842732
978 0.842531
979 0.842354
980 0.842169
981 0.841982
982 0.841798
983 0.841615
984 0.841431
985 0.841247
986 0.841063
987 0.840879
988 0.840695
989 0.84051
990 0.840325
991 0.840141
992 0.839957
993 0.839773
994 0.839589
995 0.839406
996 0.839217
997 0.839037
998 0.838857
999 0.838674
1000 0.838491
1001 0.83831
1002 0.838129
1003 0.837948
1004 0.837767
1005 0.837584
1006 0.837403
1007 0.837221
1008 0.837039
1009 0.836858
1010 0.836678
1011 0.836496
1012 0.836312
1013 0.836132
1014 0.835952
1015 0.835771
1016 0.835598
1017 0.835423
1018 0.835244
1019 0.835066
1020 0.834889
1021 0.834713
1022 0.834536
1023 0.834358
1024 0.83418
1025 0.834003
1026 0.833826
1027 0.833647
1028 0.833471
1029 0.833295
1030 0.833119
1031 0.832943
1032 0.832765
1033 0.832595
1034 0.832422
1035 0.832247
1036 0.832075
1037 0.831903
1038 0.831729
1039 0.831556
1040 0.831382
1041 0.831207
1042 0.831033
1043 0.830859
1044 0.830685
1045 0.830511
1046 0.830337
1047 0.830164
1048 0.829991
1049 0.829819
1050 0.829634
1051 0.82946
1052 0.829288
1053 0.829115
1054 0.828943
1055 0.828775
1056 0.828607
1057 0.828439
1058 0.828271
1059 0.828102
1060 0.827934
1061 0.827765
1062 0.827596
1063 0.827428
1064 0.827258
1065 0.82709
1066 0.826921
1067 0.826753
1068 0.826586
1069 0.826423
1070 0.826254
1071 0.826091
1072 0.825925
1073 0.825759
1074 0.82559
1075 0.825422
1076 0.825255
1077 0.825087
1078 0.824919
1079 0.824751
1080 0.824584
1081 0.824417
1082 0.82425
1083 0.824083
1084 0.823915
1085 0.823746
1086 0.823581
1087 0.823402
1088 0.823235
1089 0.823069
1090 0.822908
1091 0.822746
1092 0.822585
1093 0.822424
1094 0.822261
1095 0.822101
1096 0.821939
1097 0.821777
1098 0.821616
1099 0.821454
1100 0.821292
1101 0.82113
1102 0.820968
1103 0.820806
1104 0.820644
1105 0.820484
1106 0.820319
1107 0.820154
1108 0.819992
1109 0.819829
1110 0.819667
1111 0.819509
1112 0.819349
1113 0.819191
1114 0.819032
1115 0.818874
1116 0.818715
1117 0.818556
1118 0.818396
1119 0.818237
1120 0.818077
1121 0.817918
1122 0.817759
1123 0.8176
1124 0.817438
1125 0.817283
1126 0.817127
1127 0.816967
1128 0.816808
1129 0.816653
1130 0.816494
1131 0.816337
1132 0.816181
1133 0.816024
1134 0.815868
1135 0.815712
1136 0.815555
1137 0.815399
1138 0.815242
1139 0.815085
1140 0.814928
1141 0.814772
1142 0.814616
1143 0.814461
1144 0.814308
1145 0.814159
1146 0.814001
1147 0.813849
1148 0.813695
1149 0.813538
1150 0.813382
1151 0.813226
1152 0.813071
1153 0.812917
1154 0.812763
1155 0.812609
1156 0.812455
1157 0.812301
1158 0.812147
1159 0.811993
1160 0.81184
1161 0.811686
1162 0.81153
1163 0.811378
1164 0.811223
1165 0.811078
1166 0.810931
1167 0.810778
1168 0.810628
1169 0.810475
1170 0.810323
1171 0.81017
1172 0.81002
1173 0.809867
1174 0.809715
1175 0.809565
1176 0.809414
1177 0.809263
1178 0.809112
1179 0.808962
1180 0.808811
1181 0.808661
1182 0.808512
1183 0.808365
1184 0.808216
1185 0.808067
1186 0.807917
1187 0.807766
1188 0.807619
1189 0.807469
1190 0.807322
1191 0.807172
1192 0.807023
1193 0.806875
1194 0.806728
1195 0.806582
1196 0.806436
1197 0.806288
1198 0.806139
1199 0.805993
1200 0.805846
1201 0.805699
1202 0.80555
1203 0.805403
1204 0.805258
1205 0.805108
1206 0.80496
1207 0.804813
1208 0.804666
1209 0.804521
1210 0.804375
1211 0.804231
1212 0.804085
1213 0.803941
1214 0.803797
1215 0.803653
1216 0.80351
1217 0.803368
1218 0.803224
1219 0.803081
1220 0.802938
1221 0.802796
1222 0.802651
1223 0.802509
1224 0.802364
1225 0.802226
1226 0.80208
1227 0.801934
1228 0.80179
1229 0.801645
1230 0.8015
1231 0.801355
1232 0.801211
1233 0.801067
1234 0.800923
1235 0.800781
1236 0.80064
1237 0.800498
1238 0.800356
1239 0.800215
1240 0.800074
1241 0.799934
1242 0.799793
1243 0.799654
1244 0.799518
1245 0.799373
1246 0.799233
1247 0.799091
1248 0.798949
1249 0.798806
1250 0.798665
1251 0.798525
1252 0.798384
1253 0.798243
1254 0.798103
1255 0.797965
1256 0.797825
1257 0.797687
1258 0.797549
1259 0.797411
1260 0.797272
1261 0.797133
1262 0.796995
1263 0.796858
1264 0.796722
1265 0.796582
1266 0.79644
1267 0.796299
1268 0.79616
1269 0.79602
1270 0.79588
1271 0.795741
1272 0.795602
1273 0.795465
1274 0.79533
1275 0.795194
1276 0.795058
1277 0.794923
1278 0.794788
1279 0.794652
1280 0.794515
1281 0.79438
1282 0.794243
1283 0.794107
1284 0.793971
1285 0.79383
1286 0.793695
1287 0.793554
1288 0.793415
1289 0.793281
1290 0.793143
1291 0.793007
1292 0.792871
1293 0.792735
1294 0.7926
1295 0.792465
1296 0.792332
1297 0.792199
1298 0.792067
1299 0.791933
1300 0.791801
1301 0.791669
1302 0.791537
1303 0.791406
1304 0.791274
1305 0.791137
1306 0.791004
1307 0.790873
1308 0.790734
1309 0.790597
1310 0.790462
1311 0.790326
1312 0.790194
1313 0.79006
1314 0.789927
1315 0.789793
1316 0.78966
1317 0.789528
1318 0.789397
1319 0.789267
1320 0.789136
1321 0.789006
1322 0.788876
1323 0.788746
1324 0.788616
1325 0.788485
1326 0.788356
1327 0.788221
1328 0.788088
1329 0.78796
1330 0.787825
1331 0.787691
1332 0.787557
1333 0.787424
1334 0.787292
1335 0.78716
1336 0.78703
1337 0.786899
1338 0.786768
1339 0.786639
1340 0.786511
1341 0.786381
1342 0.786251
1343 0.786124
1344 0.785996
1345 0.785869
1346 0.785739
1347 0.785611
1348 0.785485
1349 0.785362
1350 0.785225
1351 0.785093
1352 0.784961
1353 0.78483
1354 0.784701
1355 0.784572
1356 0.784445
1357 0.784315
1358 0.784186
1359 0.784058
1360 0.78393
1361 0.783802
1362 0.783676
1363 0.783551
1364 0.783425
1365 0.783299
1366 0.783174
1367 0.783049
1368 0.782924
1369 0.7828
1370 0.782669
1371 0.782539
1372 0.782405
1373 0.782275
1374 0.782147
1375 0.78202
1376 0.781895
1377 0.78177
1378 0.781643
1379 0.781517
1380 0.781392
1381 0.781269
1382 0.781146
1383 0.781022
1384 0.780898
1385 0.780775
1386 0.780651
1387 0.780528
1388 0.780404
1389 0.780281
1390 0.780158
1391 0.78003
1392 0.779909
1393 0.779781
1394 0.779649
1395 0.779519
1396 0.779391
1397 0.779263
1398 0.779137
1399 0.77901
1400 0.778886
1401 0.778763
1402 0.778642
1403 0.77852
1404 0.778397
1405 0.778276
1406 0.778155
1407 0.778032
1408 0.777911
1409 0.77779
1410 0.77767
1411 0.777549
1412 0.777428
1413 0.777308
1414 0.777182
1415 0.777057
1416 0.776927
1417 0.776802
1418 0.77668
1419 0.776554
1420 0.776432
1421 0.776309
1422 0.776187
1423 0.776066
1424 0.775946
1425 0.775824
1426 0.775703
1427 0.775583
1428 0.775464
1429 0.775345
1430 0.775225
1431 0.775106
1432 0.774987
1433 0.774868
1434 0.774749
1435 0.77463
1436 0.774512
1437 0.774396
1438 0.774267
1439 0.774147
1440 0.774025
1441 0.773902
1442 0.773778
1443 0.773655
1444 0.773532
1445 0.773411
1446 0.77329
1447 0.773169
1448 0.773049
1449 0.772931
1450 0.772811
1451 0.772693
1452 0.772575
1453 0.772457
1454 0.77234
1455 0.772222
1456 0.772105
1457 0.771989
1458 0.771873
1459 0.771757
1460 0.77164
1461 0.771514
1462 0.77139
1463 0.771267
1464 0.771145
1465 0.771024
1466 0.770903
1467 0.770783
1468 0.770665
1469 0.770549
1470 0.770434
1471 0.770317
1472 0.770199
1473 0.770081
1474 0.769965
1475 0.769849
1476 0.769735
1477 0.76962
1478 0.769504
1479 0.76939
1480 0.769275
1481 0.769162
1482 0.769044
1483 0.768926
1484 0.768803
1485 0.768682
1486 0.768563
1487 0.768444
1488 0.768326
1489 0.768209
1490 0.768092
1491 0.767975
1492 0.76786
1493 0.767746
1494 0.767632
1495 0.767517
1496 0.767404
1497 0.767288
1498 0.767175
1499 0.767062
1500 0.76695
1501 0.766837
1502 0.766725
1503 0.766612
1504 0.7665
1505 0.766386
1506 0.766273
1507 0.766151
1508 0.766031
1509 0.765914
1510 0.765797
1511 0.76568
1512 0.765563
1513 0.765448
1514 0.765333
1515 0.765218
1516 0.765104
1517 0.764991
1518 0.764877
1519 0.764765
1520 0.764652
1521 0.764542
1522 0.764431
1523 0.764321
1524 0.76421
1525 0.764099
1526 0.763988
1527 0.763878
1528 0.763769
1529 0.763659
1530 0.76354
1531 0.76342
1532 0.763303
1533 0.763186
1534 0.76307
1535 0.762954
1536 0.762839
1537 0.762725
1538 0.762611
1539 0.762498
1540 0.762386
1541 0.762274
1542 0.762164
1543 0.762053
1544 0.761943
1545 0.761834
1546 0.761725
1547 0.761616
1548 0.761509
1549 0.761401
1550 0.761293
1551 0.761185
1552 0.761078
1553 0.760968
1554 0.760854
1555 0.76074
1556 0.760625
1557 0.760512
1558 0.760398
1559 0.760284
1560 0.760171
1561 0.76006
1562 0.75995
1563 0.75984
1564 0.759729
1565 0.759619
1566 0.759509
1567 0.759399
1568 0.759289
1569 0.759179
1570 0.759072
1571 0.758964
1572 0.758858
1573 0.758751
1574 0.758644
1575 0.758539
1576 0.758434
1577 0.758324
1578 0.758207
1579 0.758092
1580 0.757978
1581 0.757867
1582 0.757756
1583 0.757646
1584 0.757537
1585 0.757426
1586 0.757316
1587 0.757208
1588 0.757101
1589 0.756991
1590 0.756883
1591 0.756775
1592 0.756669
1593 0.756563
1594 0.756458
1595 0.756352
1596 0.756247
1597 0.756141
1598 0.756036
1599 0.755931
1600 0.755828
1601 0.75572
1602 0.755605
1603 0.755491
1604 0.755379
1605 0.755267
1606 0.755157
1607 0.755046
1608 0.754936
1609 0.754827
1610 0.754719
1611 0.754613
1612 0.754507
1613 0.754401
1614 0.754297
1615 0.754192
1616 0.754087
1617 0.753981
1618 0.753878
1619 0.753775
1620 0.753672
1621 0.753569
1622 0.753466
1623 0.753363
1624 0.75326
1625 0.753155
1626 0.753042
1627 0.75293
1628 0.752819
1629 0.752709
1630 0.752601
1631 0.752493
1632 0.752385
1633 0.752277
1634 0.75217
1635 0.752064
1636 0.751959
1637 0.751854
1638 0.75175
1639 0.751647
1640 0.751545
1641 0.751443
1642 0.751341
1643 0.751239
1644 0.751138
1645 0.751036
1646 0.750935
1647 0.750834
1648 0.750733
1649 0.750633
1650 0.750529
1651 0.750416
1652 0.750306
1653 0.750196
1654 0.750087
1655 0.749979
1656 0.749872
1657 0.749766
1658 0.749662
1659 0.749558
1660 0.749454
1661 0.74935
1662 0.749245
1663 0.749141
1664 0.749037
1665 0.748935
1666 0.748834
1667 0.748734
1668 0.748634
1669 0.748534
1670 0.748434
1671 0.748334
1672 0.748234
1673 0.748135
1674 0.748035
1675 0.747931
1676 0.747824
1677 0.747716
1678 0.747609
1679 0.747503
1680 0.747398
1681 0.747295
1682 0.747191
1683 0.747087
1684 0.746984
1685 0.746881
1686 0.746778
1687 0.746677
1688 0.746574
1689 0.746472
1690 0.74637
1691 0.746267
1692 0.746169
1693 0.74607
1694 0.745971
1695 0.745872
1696 0.745773
1697 0.745675
1698 0.745577
1699 0.74548
1700 0.745379
1701 0.745272
1702 0.745167
1703 0.745062
1704 0.744957
1705 0.744853
1706 0.74475
1707 0.744646
1708 0.744543
1709 0.74444
1710 0.744339
1711 0.744239
1712 0.74414
1713 0.744039
1714 0.74394
1715 0.743842
1716 0.743744
1717 0.743647
1718 0.74355
1719 0.743453
1720 0.743356
1721 0.743259
1722 0.743162
1723 0.743065
1724 0.742968
1725 0.74287
1726 0.742764
1727 0.742657
1728 0.742552
1729 0.742449
1730 0.742346
1731 0.742245
1732 0.742142
1733 0.742042
1734 0.741942
1735 0.741841
1736 0.741741
1737 0.741642
1738 0.741544
1739 0.741447
1740 0.741348
1741 0.741249
1742 0.741152
1743 0.741056
1744 0.740961
1745 0.740866
1746 0.740771
1747 0.740676
1748 0.740581
1749 0.740487
1750 0.740393
1751 0.740296
1752 0.740191
1753 0.740089
1754 0.739985
1755 0.739884
1756 0.739783
1757 0.739681
1758 0.73958
1759 0.73948
1760 0.739381
1761 0.739281
1762 0.739182
1763 0.739083
1764 0.738985
1765 0.738887
1766 0.738789
1767 0.738694
1768 0.738599
1769 0.738504
1770 0.73841
1771 0.738316
1772 0.738223
1773 0.738129
1774 0.738037
1775 0.737944
1776 0.737852
1777 0.737756
1778 0.737652
1779 0.737549
1780 0.737446
1781 0.737345
1782 0.737244
1783 0.737144
1784 0.737045
1785 0.736948
1786 0.73685
1787 0.736753
1788 0.736658
1789 0.736563
1790 0.736465
1791 0.736371
1792 0.736277
1793 0.736181
1794 0.736086
1795 0.735993
1796 0.7359
1797 0.735807
1798 0.735715
1799 0.735622
1800 0.73553
1801 0.735438
1802 0.735345
1803 0.735249
1804 0.735151
1805 0.735051
1806 0.734952
1807 0.734855
1808 0.734757
1809 0.734659
1810 0.734562
1811 0.734466
1812 0.734368
1813 0.734271
1814 0.734174
1815 0.73408
1816 0.733984
1817 0.733888
1818 0.733796
1819 0.7337
1820 0.733609
1821 0.733514
1822 0.733423
1823 0.733331
1824 0.73324
1825 0.73315
1826 0.733059
1827 0.732968
1828 0.732877
1829 0.732785
1830 0.73269
1831 0.732593
1832 0.732497
1833 0.732399
1834 0.732301
1835 0.732204
1836 0.732108
1837 0.732011
1838 0.731916
1839 0.731822
1840 0.731726
1841 0.731631
1842 0.731536
1843 0.731443
1844 0.73135
1845 0.731259
1846 0.731165
1847 0.731076
1848 0.730986
1849 0.730896
1850 0.730806
1851 0.730717
1852 0.730627
1853 0.730537
1854 0.730448
1855 0.730359
1856 0.730268
1857 0.730172
1858 0.730073
1859 0.729975
1860 0.729879
1861 0.729783
1862 0.729689
1863 0.729594
1864 0.7295
1865 0.729406
1866 0.729312
1867 0.729218
1868 0.729126
1869 0.729034
1870 0.728943
1871 0.728851
1872 0.728758
1873 0.728665
1874 0.728576
1875 0.728487
1876 0.728398
1877 0.72831
1878 0.728222
1879 0.728134
1880 0.728047
1881 0.727959
1882 0.727873
1883 0.727785
1884 0.727691
1885 0.727593
1886 0.727495
1887 0.727399
1888 0.727303
1889 0.727208
1890 0.727112
1891 0.727018
1892 0.726924
1893 0.726831
1894 0.726739
1895 0.726647
1896 0.726555
1897 0.726464
1898 0.726374
1899 0.726287
1900 0.726199
1901 0.72611
1902 0.726022
1903 0.725935
1904 0.725849
1905 0.725762
1906 0.725676
1907 0.72559
1908 0.725504
1909 0.725419
1910 0.725333
1911 0.725243
1912 0.725147
1913 0.725051
1914 0.724955
1915 0.72486
1916 0.724765
1917 0.724672
1918 0.72458
1919 0.724488
1920 0.724396
1921 0.724304
1922 0.724214
1923 0.724125
1924 0.724036
1925 0.723946
1926 0.723858
1927 0.72377
1928 0.723682
1929 0.723597
1930 0.72351
1931 0.723424
1932 0.723339
1933 0.723253
1934 0.723168
1935 0.723083
1936 0.722999
1937 0.722915
1938 0.722829
1939 0.722738
1940 0.722645
1941 0.722549
1942 0.722455
1943 0.722362
1944 0.72227
1945 0.722178
1946 0.722087
1947 0.721995
1948 0.721904
1949 0.721813
1950 0.721723
1951 0.721633
1952 0.721545
1953 0.721458
1954 0.721371
1955 0.721285
1956 0.721199
1957 0.721114
1958 0.721029
1959 0.720945
1960 0.720861
1961 0.720778
1962 0.720694
1963 0.720611
1964 0.720527
1965 0.720444
1966 0.72036
1967 0.72027
1968 0.720176
1969 0.720083
1970 0.719991
1971 0.7199
1972 0.719808
1973 0.719716
1974 0.719626
1975 0.719535
1976 0.719446
1977 0.719357
1978 0.719271
1979 0.719185
1980 0.719098
1981 0.719012
1982 0.718928
1983 0.718841
1984 0.718758
1985 0.718675
1986 0.718592
1987 0.718508
1988 0.718424
1989 0.718337
1990 0.718254
1991 0.718171
1992 0.718087
1993 0.718003
1994 0.717917
1995 0.717829
1996 0.717738
1997 0.717647
1998 0.717557
1999 0.717467
2000 0.717379
2001 0.717288
2002 0.717198
2003 0.717108
2004 0.717019
2005 0.716933
2006 0.716845
2007 0.716759
2008 0.716674
2009 0.71659
2010 0.716503
2011 0.716421
2012 0.716335
2013 0.71625
2014 0.716168
2015 0.716085
2016 0.716003
2017 0.715921
2018 0.715841
2019 0.71576
2020 0.715679
2021 0.715598
2022 0.715518
2023 0.715435
2024 0.715347
2025 0.715256
2026 0.715166
2027 0.715075
2028 0.714985
2029 0.714895
2030 0.714806
2031 0.714718
2032 0.71463
2033 0.714544
2034 0.714459
2035 0.714372
2036 0.714286
2037 0.714201
2038 0.714118
2039 0.714036
2040 0.713954
2041 0.713872
2042 0.713791
2043 0.713711
2044 0.71363
2045 0.713549
2046 0.713468
2047 0.713388
2048 0.713308
2049 0.713227
2050 0.713147
2051 0.713065
2052 0.712981
2053 0.712893
2054 0.712805
2055 0.712717
2056 0.71263
2057 0.712545
2058 0.712459
2059 0.712373
2060 0.712286
2061 0.712199
2062 0.712113
2063 0.712028
2064 0.711943
2065 0.711859
2066 0.711778
2067 0.711695
2068 0.711612
2069 0.711527
2070 0.711447
2071 0.711366
2072 0.711285
2073 0.711205
2074 0.711126
2075 0.711046
2076 0.710967
2077 0.710887
2078 0.710808
2079 0.710729
2080 0.71065
2081 0.710569
2082 0.710484
2083 0.710396
2084 0.710306
2085 0.710217
2086 0.710129
2087 0.710042
2088 0.709954
2089 0.709868
2090 0.709783
2091 0.709698
2092 0.709614
2093 0.70953
2094 0.709447
2095 0.709364
2096 0.709283
2097 0.709201
2098 0.70912
2099 0.709042
2100 0.70896
2101 0.70888
2102 0.7088
2103 0.708722
2104 0.708644
2105 0.708566
2106 0.708488
2107 0.708411
2108 0.708333
2109 0.708256
2110 0.708178
2111 0.708097
2112 0.708012
2113 0.707926
2114 0.70784
2115 0.707754
2116 0.707668
2117 0.707581
2118 0.707496
2119 0.707411
2120 0.707327
2121 0.707243
2122 0.70716
2123 0.707078
2124 0.706998
2125 0.706919
2126 0.706839
2127 0.70676
2128 0.706682
2129 0.706605
2130 0.706528
2131 0.706451
2132 0.706374
2133 0.706297
2134 0.706219
2135 0.706142
2136 0.706064
2137 0.705987
2138 0.70591
2139 0.705832
2140 0.705754
2141 0.705672
2142 0.705587
2143 0.7055
2144 0.705413
2145 0.705327
2146 0.705242
2147 0.705158
2148 0.705074
2149 0.704991
2150 0.704907
2151 0.704824
2152 0.704742
2153 0.70466
2154 0.704579
2155 0.704499
2156 0.70442
2157 0.704341
2158 0.704264
2159 0.704184
2160 0.704106
2161 0.704029
2162 0.703952
2163 0.703876
2164 0.7038
2165 0.703725
2166 0.703649
2167 0.703573
2168 0.703497
2169 0.703422
2170 0.703346
2171 0.703268
2172 0.703185
2173 0.703101
2174 0.703018
2175 0.702933
2176 0.702848
2177 0.702763
2178 0.702679
2179 0.702596
2180 0.702514
2181 0.702432
2182 0.702351
2183 0.702271
2184 0.702194
2185 0.702116
2186 0.702039
2187 0.701962
2188 0.701887
2189 0.701812
2190 0.701737
2191 0.701658
2192 0.701579
2193 0.7015
2194 0.701425
2195 0.70135
2196 0.701275
2197 0.7012
2198 0.701125
2199 0.70105
2200 0.700973
2201 0.700895
2202 0.700816
2203 0.700734
2204 0.700651
2205 0.700569
2206 0.700487
2207 0.700406
2208 0.700326
2209 0.700246
2210 0.700165
2211 0.700084
2212 0.700004
2213 0.699924
2214 0.699844
2215 0.699766
2216 0.699689
2217 0.699612
2218 0.699535
2219 0.699459
2220 0.699384
2221 0.699309
2222 0.699233
2223 0.699159
2224 0.699084
2225 0.69901
2226 0.698936
2227 0.698862
2228 0.698788
2229 0.698715
2230 0.698641
2231 0.698567
2232 0.698491
2233 0.698412
2234 0.698331
2235 0.698249
2236 0.698165
2237 0.698081
2238 0.697998
2239 0.697916
2240 0.697835
2241 0.697754
2242 0.697675
2243 0.697596
2244 0.697519
2245 0.69744
2246 0.697363
2247 0.697286
2248 0.69721
2249 0.697135
2250 0.69706
2251 0.696986
2252 0.696912
2253 0.696839
2254 0.696766
2255 0.696694
2256 0.696622
2257 0.696549