    1.9149 0.00170974
   5.76699 0.000591165
   9.66391 0.000366941
   13.6062 0.000270798
   17.5943 0.000217375
   21.6289 0.000183377
   25.7104 0.000159841
   29.8394 0.000142582
   34.0165 0.000129386
   38.2422 0.000118969
   42.5171 0.000110538
   46.8417 0.000103575
   51.2166 9.77268e-05
   55.6425 9.27467e-05
   60.1199 8.84547e-05
   64.6493 8.47176e-05
   69.2315 8.14346e-05
    73.867 7.85279e-05
   78.5565 7.59364e-05
   83.3005 7.36116e-05
   88.0998 7.15145e-05
   92.9549 6.96134e-05
   97.8665 6.78821e-05
   102.835 6.59383e-05
   107.862 6.38726e-05
   112.947 6.19455e-05
   118.091 6.01412e-05
   123.295 5.84463e-05
    128.56 5.68494e-05
   133.886 5.53405e-05
   139.274 5.39108e-05
   144.725 5.2553e-05
   150.239 5.12603e-05
   155.817 5.0027e-05
    161.46 4.88479e-05
   167.169 4.77185e-05
   172.945 4.66347e-05
   178.787 4.5593e-05
   184.698  4.459e-05
   190.677 4.36229e-05
   196.726 4.2689e-05
   202.845 4.17861e-05
   209.036 4.0912e-05
   215.298 4.00647e-05
   221.634 3.92426e-05
   228.043 3.8444e-05
   234.527 3.76675e-05
   241.086 3.69117e-05
   247.721 3.61755e-05
   254.434 3.54578e-05
   261.225 3.47574e-05
   268.095 3.40736e-05
   275.045 3.34053e-05
   282.076 3.2752e-05
   289.188 3.21127e-05
   296.384 3.14869e-05
   303.663 3.08739e-05
   311.026 3.02731e-05
   318.476 2.96841e-05
   326.012 2.91063e-05
   333.636 2.85392e-05
   341.349 2.79825e-05
   349.151 2.74358e-05
   357.044 2.68986e-05
   365.029 2.63707e-05
   373.107 2.58517e-05
   381.279 2.53414e-05
   389.547 2.48394e-05
    397.91 2.43455e-05
   406.371 2.38595e-05
    414.93 2.33812e-05
   423.589 2.29103e-05
   432.348 2.24467e-05
   441.209 2.19901e-05
   450.174 2.15404e-05
   459.243 2.10975e-05
   468.417 2.06612e-05
   477.699 2.02314e-05
   487.088 1.98079e-05
   496.586 1.93906e-05
   506.196 1.89795e-05
   515.916 1.85743e-05
    525.75 1.81751e-05
   535.699 1.77817e-05
   545.763 1.7394e-05
   555.945 1.70119e-05
   566.244 1.66355e-05
   576.664 1.62646e-05
   587.205 1.58991e-05
   597.869 1.55389e-05
   608.657 1.51842e-05
    619.57 1.48346e-05
    630.61 1.44903e-05
   641.779 1.41512e-05
   653.078 1.38172e-05
   664.508 1.34883e-05
   676.072 1.31644e-05
    687.77 1.28455e-05
   699.604 1.25316e-05
   711.575 1.22226e-05
   723.687 1.19184e-05
   735.939 1.16192e-05
   748.333 1.13248e-05
   760.872 1.10351e-05
   773.557 1.07503e-05
   786.389 1.04702e-05
   799.371 1.01948e-05
   812.504 9.92404e-06
    825.79 9.65797e-06
    839.23 9.39654e-06
   852.827 9.1397e-06
   866.582 8.88744e-06
   880.497 8.63974e-06
   894.574 8.39655e-06
   908.815 8.15786e-06
   923.221 7.92365e-06
   937.795 7.69387e-06
   952.539 7.46852e-06
   967.455 7.24755e-06
   982.544 7.03094e-06
   997.808 6.81866e-06
   1013.25 6.61069e-06
   1028.87 6.40699e-06
   1044.68 6.20754e-06
   1060.66 6.01229e-06
   1076.84 5.82123e-06
    1093.2 5.63431e-06
   1109.75 5.45151e-06
    1126.5 5.27279e-06
   1143.44 5.09812e-06
   1160.57 4.92746e-06
   1177.91 4.76077e-06
   1195.45 4.59802e-06
   1213.19 4.43917e-06
   1231.14 4.28418e-06
    1249.3 4.13301e-06
   1267.67 3.98562e-06
   1286.25 3.84197e-06
   1305.05 3.70202e-06
   1324.07 3.56572e-06
   1343.31 3.43303e-06
   1362.77 3.3039e-06
   1382.46 3.17829e-06
   1402.38 3.05616e-06
   1422.53 2.93744e-06
   1442.91 2.82211e-06
   1463.54 2.71011e-06
    1484.4 2.60138e-06
    1505.5 2.49588e-06
   1526.86 2.39356e-06
   1548.45 2.29437e-06
   1570.31 2.19825e-06
   1592.41 2.10516e-06
   1614.77 2.01503e-06
    1637.4 1.92782e-06
   1660.28 1.84347e-06
   1683.43 1.76193e-06
   1706.85 1.68314e-06
   1730.55 1.60705e-06
   1754.52 1.5336e-06
   1778.77 1.46274e-06
    1803.3 1.39441e-06
   1828.12 1.32856e-06
   1853.22 1.26512e-06
   1878.62 1.20405e-06
   1904.31 1.14529e-06
    1930.3 1.08878e-06
    1956.6 1.03446e-06
    1983.2 9.82288e-07
   2010.11 9.32197e-07
   2037.33 8.84136e-07
   2064.87 8.38049e-07
   2092.73 7.93882e-07
   2120.92 7.51579e-07
   2149.43 7.11088e-07
   2178.28 6.72354e-07
   2207.46 6.35325e-07
   2236.98 5.99948e-07
   2266.84 5.66171e-07
   2297.05 5.33943e-07
   2327.61 5.03212e-07
   2358.53 4.73929e-07
   2389.81 4.46045e-07
   2421.45 4.1951e-07
   2453.46 3.94277e-07
   2485.85 3.70299e-07
   2518.61 3.4753e-07
   2551.75 3.25923e-07
   2585.28 3.05436e-07
   2619.19 2.86023e-07
   2653.51 2.67642e-07
   2688.22 2.50252e-07
   2723.33 2.33812e-07
   2758.86 2.18281e-07
   2794.79 2.03621e-07
   2831.15 1.89794e-07
   2867.93 1.76763e-07
   2905.13 1.64492e-07
   2942.77 1.52947e-07
   2980.85 1.42093e-07
