5 0.291966
10 0.267895
15 0.252029
20 0.241343
25 0.234066
30 0.229104
35 0.225756
40 0.223553
45 0.222178
50 0.221407
55 0.221083
60 0.221096
65 0.221363
70 0.221826
75 0.222442
80 0.223178
85 0.224013
90 0.224928
95 0.225911
100 0.226954
105 0.228049
110 0.229192
115 0.230379
120 0.231609
125 0.232879
130 0.23419
135 0.235541
140 0.236933
145 0.238365
150 0.239838
155 0.241354
160 0.242913
165 0.244518
170 0.246168
175 0.247868
180 0.249618
185 0.251421
190 0.253279
195 0.255192
200 0.257164
205 0.259196
210 0.261291
215 0.26345
220 0.265676
225 0.267971
230 0.270339
235 0.272781
240 0.275301
245 0.277902
250 0.280587
255 0.283362
260 0.28623
265 0.289195
270 0.292261
275 0.295434
280 0.298717
285 0.302115
290 0.305635
295 0.30928
300 0.313059
305 0.316977
310 0.321042
315 0.325261
320 0.329642
325 0.334193
330 0.338924
335 0.343843
340 0.348961
345 0.354291
350 0.359843
355 0.365631
360 0.371669
365 0.377971
370 0.384555
375 0.391436
380 0.398635
385 0.406173
390 0.414073
395 0.422359
400 0.431057
405 0.440198
410 0.449814
415 0.45994
420 0.470615
425 0.481881
430 0.493786
435 0.50638
440 0.519721
445 0.533873
450 0.548905
455 0.564896
460 0.58193
465 0.600104
470 0.619525
475 0.640313
480 0.662601
485 0.686537
490 0.712287
495 0.740036
500 0.769992
505 0.802385
510 0.83747
515 0.875531
520 0.916881
525 0.961862
530 1.01085
535 1.06423
540 1.12242
545 1.18581
550 1.25471
555 1.32931
560 1.40944
565 1.49432
570 1.58207
575 1.66888
580 1.74777
585 1.80707
590 1.82939
595 1.79448
600 1.69155
605 1.5366
610 1.37023
615 1.22888
620 1.12737
625 1.06481
630 1.03457
635 1.02892
640 1.03968
645 1.05957
650 1.08243
655 1.10323
660 1.11831
665 1.12566
670 1.12482
675 1.11692
680 1.10422
685 1.08938
690 1.07479
695 1.06217
700 1.05244
705 1.04583
710 1.04204
715 1.04041
720 1.04015
725 1.04045
730 1.04063
735 1.04021
740 1.03894
745 1.03678
750 1.03387
755 1.03043
760 1.02676
765 1.02311
770 1.01969
775 1.01663
780 1.01397
785 1.01169
790 1.00972
795 1.00798
800 1.00637
805 1.0048
810 1.0032
815 1.00154
820 0.999816
825 0.998026
830 0.996198
835 0.994361
840 0.992544
845 0.990773
850 0.989062
855 0.987421
860 0.985847
865 0.984334
870 0.982872
875 0.981449
880 0.980053
885 0.978674
890 0.977308
895 0.975951
900 0.974603
905 0.973266
910 0.971942
915 0.970634
920 0.969346
925 0.96808
930 0.966836
935 0.965615
940 0.964417
945 0.963238
950 0.962079
955 0.960937
960 0.959812
965 0.958701
970 0.957605
975 0.956523
980 0.955455
985 0.954402
990 0.953363
995 0.952338
1000 0.951328
1005 0.950331
1010 0.949349
1015 0.948379
1020 0.947423
1025 0.946479
1030 0.945547
1035 0.944626
1040 0.943717
1045 0.942818
1050 0.94193
1055 0.941053
1060 0.940185
1065 0.939327
1070 0.938479
1075 0.937639
1080 0.936809
1085 0.935986
1090 0.935172
1095 0.934365
1100 0.933566
1105 0.932774
1110 0.93199
1115 0.931212
1120 0.930442
1125 0.929678
1130 0.928921
1135 0.928171
1140 0.927427
1145 0.92669
1150 0.925959
1155 0.925234
1160 0.924516
1165 0.923803
1170 0.923097
1175 0.922396
1180 0.921702
1185 0.921013
1190 0.920329
1195 0.919652
1200 0.918979
1205 0.918312
1210 0.917651
1215 0.916994
1220 0.916343
1225 0.915696
1230 0.915055
1235 0.914418
1240 0.913787
1245 0.91316
1250 0.912539
1255 0.911922
1260 0.911311
1265 0.910704
1270 0.910103
1275 0.909506
1280 0.908915
1285 0.908328
1290 0.907746
1295 0.907168
1300 0.906595
1305 0.906027
1310 0.905463
1315 0.904903
1320 0.904347
1325 0.903795
1330 0.903247
1335 0.902704
1340 0.902164
1345 0.901628
1350 0.901095
1355 0.900566
1360 0.900041
1365 0.89952
1370 0.899002
1375 0.898488
1380 0.897978
1385 0.897471
1390 0.896967
1395 0.896467
1400 0.895971
1405 0.895478
1410 0.894988
1415 0.894501
1420 0.894017
1425 0.893537
1430 0.893059
1435 0.892584
1440 0.892112
1445 0.891643
1450 0.891176
1455 0.890712
1460 0.890251
1465 0.889792
1470 0.889336
1475 0.888882
1480 0.888431
1485 0.887983
1490 0.887536
1495 0.887092
1500 0.886651
1505 0.886212
1510 0.885775
1515 0.885341
1520 0.884908
1525 0.884479
1530 0.884051
1535 0.883626
1540 0.883202
1545 0.882781
1550 0.882363
1555 0.881946
1560 0.881532
1565 0.881119
1570 0.880709
1575 0.880301
1580 0.879895
1585 0.879491
1590 0.879089
1595 0.878689
1600 0.878291
1605 0.877895
1610 0.877501
1615 0.877109
1620 0.87672
1625 0.876332
1630 0.875945
1635 0.875561
1640 0.875179
1645 0.874799
1650 0.87442
1655 0.874044
1660 0.873669
1665 0.873296
1670 0.872925
1675 0.872555
1680 0.872188
1685 0.871822
1690 0.871458
1695 0.871096
1700 0.870735
1705 0.870376
1710 0.870019
1715 0.869664
1720 0.86931
1725 0.868958
1730 0.868607
1735 0.868259
1740 0.867911
1745 0.867566
1750 0.867222
1755 0.866879
1760 0.866539
1765 0.866199
1770 0.865862
1775 0.865526
1780 0.865191
1785 0.864858
1790 0.864526
1795 0.864196
1800 0.863868
1805 0.863541
1810 0.863215
1815 0.862891
1820 0.862568
1825 0.862247
1830 0.861927
1835 0.861608
1840 0.86129
1845 0.860974
1850 0.860659
1855 0.860346
1860 0.860033
1865 0.859722
1870 0.859412
1875 0.859104
1880 0.858797
1885 0.858491
1890 0.858186
1895 0.857883
1900 0.857581
1905 0.857281
1910 0.856982
1915 0.856684
1920 0.856388
1925 0.856094
1930 0.8558
1935 0.855509
1940 0.855218
1945 0.85493
1950 0.854642
1955 0.854356
1960 0.854071
1965 0.853788
1970 0.853506
1975 0.853225
1980 0.852946
1985 0.852667
1990 0.85239
1995 0.852115
2000 0.85184
2005 0.851567
2010 0.851294
2015 0.851023
2020 0.850753
2025 0.850484
2030 0.850217
2035 0.84995
2040 0.849684
2045 0.84942
2050 0.849156
2055 0.848894
2060 0.848632
2065 0.848372
2070 0.848113
2075 0.847854
2080 0.847597
2085 0.84734
2090 0.847085
2095 0.84683
2100 0.846576
2105 0.846324
2110 0.846072
2115 0.845821
2120 0.845571
2125 0.845322
2130 0.845074
2135 0.844827
2140 0.844581
2145 0.844335
2150 0.844091
2155 0.843847
2160 0.843604
2165 0.843362
2170 0.843121
2175 0.842881
2180 0.842642
2185 0.842403
2190 0.842165
2195 0.841929
2200 0.841693
2205 0.841457
2210 0.841223
2215 0.840989
2220 0.840757
2225 0.840525
2230 0.840293
2235 0.840063
2240 0.839833
2245 0.839605
2250 0.839377
2255 0.839149
2260 0.838923
2265 0.838697
2270 0.838472
2275 0.838248
2280 0.838025
2285 0.837802
2290 0.83758
2295 0.837359
2300 0.837138
2305 0.836919
2310 0.8367
2315 0.836482
2320 0.836264
2325 0.836047
2330 0.835831
2335 0.835616
2340 0.835401
2345 0.835187
2350 0.834974
2355 0.834762
2360 0.83455
2365 0.834339
2370 0.834128
2375 0.833919
2380 0.833709
2385 0.833501
2390 0.833293
2395 0.833086
2400 0.83288
2405 0.832674
2410 0.832469
2415 0.832265
2420 0.832061
2425 0.831858
2430 0.831656
2435 0.831454
2440 0.831253
2445 0.831053
2450 0.830853
2455 0.830654
2460 0.830455
2465 0.830257
2470 0.83006
2475 0.829863
2480 0.829667
2485 0.829472
2490 0.829277
2495 0.829083
2500 0.828889
2505 0.828696
2510 0.828504
2515 0.828312
2520 0.828121
2525 0.827931
2530 0.827741
2535 0.827551
2540 0.827362
2545 0.827174
2550 0.826987
2555 0.826799
2560 0.826613
2565 0.826427
2570 0.826242
2575 0.826057
2580 0.825873
2585 0.825689
2590 0.825506
2595 0.825324
2600 0.825142
2605 0.82496
2610 0.824779
2615 0.824599
2620 0.824419
2625 0.82424
2630 0.824061
2635 0.823883
2640 0.823705
2645 0.823528
2650 0.823352
2655 0.823176
2660 0.823
2665 0.822825
2670 0.822651
2675 0.822477
2680 0.822303
2685 0.82213
2690 0.821958
2695 0.821786
2700 0.821615
2705 0.821444
2710 0.821273
2715 0.821104
2720 0.820934
2725 0.820765
2730 0.820597
2735 0.820429
2740 0.820261
2745 0.820095
2750 0.819928
2755 0.819762
2760 0.819597
2765 0.819432
2770 0.819267
2775 0.819103
2780 0.818939
2785 0.818776
2790 0.818614
2795 0.818451
2800 0.81829
2805 0.818128
2810 0.817968
2815 0.817807
2820 0.817647
2825 0.817488
2830 0.817329
2835 0.81717
2840 0.817012
2845 0.816855
2850 0.816697
2855 0.816541
2860 0.816384
2865 0.816228
2870 0.816073
2875 0.815918
2880 0.815763
2885 0.815609
2890 0.815455
2895 0.815302
2900 0.815149
2905 0.814997
2910 0.814845
2915 0.814693
2920 0.814542
2925 0.814392
2930 0.814241
2935 0.814092
2940 0.813942
2945 0.813794
2950 0.813645
2955 0.813497
2960 0.81335
2965 0.813203
2970 0.813056
2975 0.81291
2980 0.812764
2985 0.812619
2990 0.812474
2995 0.812329
3000 0.812185
3005 0.812041
3010 0.811898
3015 0.811755
3020 0.811612
3025 0.81147
3030 0.811329
3035 0.811187
3040 0.811046
3045 0.810905
3050 0.810765
3055 0.810625
3060 0.810486
3065 0.810347
3070 0.810208
3075 0.810069
3080 0.809931
3085 0.809794
3090 0.809656
3095 0.809519
3100 0.809383
3105 0.809247
3110 0.809111
3115 0.808975
3120 0.80884
3125 0.808705
3130 0.80857
3135 0.808436
3140 0.808302
3145 0.808169
3150 0.808036
3155 0.807903
3160 0.80777
3165 0.807638
3170 0.807506
3175 0.807375
3180 0.807244
3185 0.807113
3190 0.806983
3195 0.806852
3200 0.806723
3205 0.806593
3210 0.806464
3215 0.806335
3220 0.806206
3225 0.806078
3230 0.80595
3235 0.805823
3240 0.805695
3245 0.805568
3250 0.805442
3255 0.805315
3260 0.805189
3265 0.805064
3270 0.804938
3275 0.804813
3280 0.804688
3285 0.804564
3290 0.80444
3295 0.804316
3300 0.804192
3305 0.804069
3310 0.803946
3315 0.803824
3320 0.803701
3325 0.803579
3330 0.803457
3335 0.803336
3340 0.803215
3345 0.803094
3350 0.802973
3355 0.802853
3360 0.802733
3365 0.802614
3370 0.802494
3375 0.802375
3380 0.802256
3385 0.802138
3390 0.802019
3395 0.801902
3400 0.801784
3405 0.801666
3410 0.801549
3415 0.801433
3420 0.801316
3425 0.8012
3430 0.801084
3435 0.800968
3440 0.800853
3445 0.800738
3450 0.800623
3455 0.800508
3460 0.800394
3465 0.80028
3470 0.800166
3475 0.800052
3480 0.799939
3485 0.799826
3490 0.799714
3495 0.799601
3500 0.799489
3505 0.799377
3510 0.799266
3515 0.799154
3520 0.799043
3525 0.798932
3530 0.798822
3535 0.798711
3540 0.798601
3545 0.798492
3550 0.798382
3555 0.798273
3560 0.798164
3565 0.798055
3570 0.797947
3575 0.797838
3580 0.79773
3585 0.797623
3590 0.797515
3595 0.797408
3600 0.797301
3605 0.797194
3610 0.797088
3615 0.796982
3620 0.796876
3625 0.79677
3630 0.796665
3635 0.796559
3640 0.796454
3645 0.79635
3650 0.796245
3655 0.796141
3660 0.796037
3665 0.795933
3670 0.79583
3675 0.795726
3680 0.795623
3685 0.79552
3690 0.795418
3695 0.795315
3700 0.795213
3705 0.795112
3710 0.79501
3715 0.794909
3720 0.794807
3725 0.794706
3730 0.794606
3735 0.794505
3740 0.794405
3745 0.794305
3750 0.794205
3755 0.794106
3760 0.794006
3765 0.793907
3770 0.793808
3775 0.79371
3780 0.793611
3785 0.793513
3790 0.793415
3795 0.793318
3800 0.79322
3805 0.793123
3810 0.793026
3815 0.792929
3820 0.792832
3825 0.792736
3830 0.79264
3835 0.792544
3840 0.792448
3845 0.792352
3850 0.792257
3855 0.792162
3860 0.792067
3865 0.791972
3870 0.791878
3875 0.791783
3880 0.791689
3885 0.791596
3890 0.791502
3895 0.791409
3900 0.791315
3905 0.791222
3910 0.79113
3915 0.791037
3920 0.790945
3925 0.790852
3930 0.790761
3935 0.790669
3940 0.790577
3945 0.790486
3950 0.790395
3955 0.790304
3960 0.790213
3965 0.790123
3970 0.790032
3975 0.789942
3980 0.789852
3985 0.789762
3990 0.789673
3995 0.789584
4000 0.789494
4005 0.789405
4010 0.789317
4015 0.789228
4020 0.78914
4025 0.789052
4030 0.788964
4035 0.788876
4040 0.788788
4045 0.788701
4050 0.788614
4055 0.788527
4060 0.78844
4065 0.788353
4070 0.788267
4075 0.788181
4080 0.788095
4085 0.788009
4090 0.787923
4095 0.787838
4100 0.787752
4105 0.787667
4110 0.787582
4115 0.787498
4120 0.787413
4125 0.787329
4130 0.787245
4135 0.787161
4140 0.787077
4145 0.786993
4150 0.78691
4155 0.786826
4160 0.786743
4165 0.78666
4170 0.786578
4175 0.786495
4180 0.786413
4185 0.786331
4190 0.786249
4195 0.786167
4200 0.786085
4205 0.786004
4210 0.785922
4215 0.785841
4220 0.78576
4225 0.785679
4230 0.785599
4235 0.785518
4240 0.785438
4245 0.785358
4250 0.785278
4255 0.785198
4260 0.785119
4265 0.785039
4270 0.78496
4275 0.784881
4280 0.784802
4285 0.784724
4290 0.784645
4295 0.784567
4300 0.784488
4305 0.78441
4310 0.784333
4315 0.784255
4320 0.784177
4325 0.7841
4330 0.784023
4335 0.783946
4340 0.783869
4345 0.783792
4350 0.783716
4355 0.783639
4360 0.783563
4365 0.783487
4370 0.783411
4375 0.783335
4380 0.78326
4385 0.783184
4390 0.783109
4395 0.783034
4400 0.782959
4405 0.782884
4410 0.78281
4415 0.782735
4420 0.782661
4425 0.782587
4430 0.782513
4435 0.782439
4440 0.782365
4445 0.782292
4450 0.782218
4455 0.782145
4460 0.782072
4465 0.781999
4470 0.781926
4475 0.781854
4480 0.781781
4485 0.781709
4490 0.781637
4495 0.781565
4500 0.781493
4505 0.781421
4510 0.78135
4515 0.781279
4520 0.781207
4525 0.781136
4530 0.781065
4535 0.780995
4540 0.780924
4545 0.780853
4550 0.780783
4555 0.780713
4560 0.780643
4565 0.780573
4570 0.780503
4575 0.780434
4580 0.780364
4585 0.780295
4590 0.780226
4595 0.780157
4600 0.780088
4605 0.780019
4610 0.779951
4615 0.779882
4620 0.779814
4625 0.779746
4630 0.779678
4635 0.77961
4640 0.779542
4645 0.779474
4650 0.779407
4655 0.77934
4660 0.779273
4665 0.779206
4670 0.779139
4675 0.779072
4680 0.779005
4685 0.778939
4690 0.778872
4695 0.778806
4700 0.77874
4705 0.778674
4710 0.778609
4715 0.778543
4720 0.778477
4725 0.778412
4730 0.778347
4735 0.778282
4740 0.778217
4745 0.778152
4750 0.778087
4755 0.778023
4760 0.777958
4765 0.777894
4770 0.77783
4775 0.777766
4780 0.777702
4785 0.777638
4790 0.777575
4795 0.777511
4800 0.777448
4805 0.777384
4810 0.777321
4815 0.777258
4820 0.777196
4825 0.777133
4830 0.77707
4835 0.777008
4840 0.776946
4845 0.776883
4850 0.776821
4855 0.776759
4860 0.776698
4865 0.776636
4870 0.776574
4875 0.776513
4880 0.776452
4885 0.77639
4890 0.776329
4895 0.776268
4900 0.776208
4905 0.776147
4910 0.776086
4915 0.776026
4920 0.775966
4925 0.775906
4930 0.775846
4935 0.775786
4940 0.775726
4945 0.775666
4950 0.775607
4955 0.775547
4960 0.775488
4965 0.775429
4970 0.77537
4975 0.775311
4980 0.775252
4985 0.775193
4990 0.775135
4995 0.775076
5000 0.775018
5005 0.77496
5010 0.774902
5015 0.774844
5020 0.774786
5025 0.774728
5030 0.774671
5035 0.774613
5040 0.774556
5045 0.774499
5050 0.774442
5055 0.774385
5060 0.774328
5065 0.774272
5070 0.774215
5075 0.774159
5080 0.774103
5085 0.774046
5090 0.77399
5095 0.773935
5100 0.773879
5105 0.773823
5110 0.773768
5115 0.773712
5120 0.773657
5125 0.773602
5130 0.773547
5135 0.773492
5140 0.773437
5145 0.773382
5150 0.773327
5155 0.773273
5160 0.773219
5165 0.773164
5170 0.77311
5175 0.773056
5180 0.773002
5185 0.772948
5190 0.772895
5195 0.772841
5200 0.772788
5205 0.772734
5210 0.772681
5215 0.772628
5220 0.772575
5225 0.772522
5230 0.772469
5235 0.772416
5240 0.772364
5245 0.772311
5250 0.772259
5255 0.772206
5260 0.772154
5265 0.772102
5270 0.77205
5275 0.771998
5280 0.771947
5285 0.771895
5290 0.771843
5295 0.771792
5300 0.771741
5305 0.771689
5310 0.771638
5315 0.771587
5320 0.771536
5325 0.771485
5330 0.771435
5335 0.771384
5340 0.771334
5345 0.771283
5350 0.771233
5355 0.771183
5360 0.771133
5365 0.771083
5370 0.771033
5375 0.770983
5380 0.770933
5385 0.770884
5390 0.770834
5395 0.770785
5400 0.770735
5405 0.770686
5410 0.770637
5415 0.770588
5420 0.770539
5425 0.77049
5430 0.770442
5435 0.770393
5440 0.770344
5445 0.770296
5450 0.770248
5455 0.7702
5460 0.770151
5465 0.770103
5470 0.770056
5475 0.770008
5480 0.76996
5485 0.769912
5490 0.769865
5495 0.769817
5500 0.76977
5505 0.769723
5510 0.769676
5515 0.769629
5520 0.769582
5525 0.769535
5530 0.769488
5535 0.769441
5540 0.769395
5545 0.769348
5550 0.769302
5555 0.769256
5560 0.769209
5565 0.769163
5570 0.769117
5575 0.769071
5580 0.769026
5585 0.76898
5590 0.768934
5595 0.768889
5600 0.768843
5605 0.768798
5610 0.768753
5615 0.768707
5620 0.768662
5625 0.768617
5630 0.768572
5635 0.768528
5640 0.768483
5645 0.768438
5650 0.768394
5655 0.768349
5660 0.768305
5665 0.768261
5670 0.768217
5675 0.768173
5680 0.768129
5685 0.768085
5690 0.768041
5695 0.767997
5700 0.767954
5705 0.76791
5710 0.767867
5715 0.767824
5720 0.767781
5725 0.767738
5730 0.767695
5735 0.767652
5740 0.767609
5745 0.767567
5750 0.767524
5755 0.767482
5760 0.76744
5765 0.767398
5770 0.767356
5775 0.767314
5780 0.767272
5785 0.767231
5790 0.767189
5795 0.767148
5800 0.767106
5805 0.767065
5810 0.767024
5815 0.766982
5820 0.766941
5825 0.7669
5830 0.766859
5835 0.766819
5840 0.766778
5845 0.766737
5850 0.766697
5855 0.766656
5860 0.766616
5865 0.766575
5870 0.766535
5875 0.766495
5880 0.766455
5885 0.766415
5890 0.766375
5895 0.766335
5900 0.766295
5905 0.766256
5910 0.766216
5915 0.766176
5920 0.766137
5925 0.766097
5930 0.766058
5935 0.766019
5940 0.76598
5945 0.76594
5950 0.765901
5955 0.765862
5960 0.765823
5965 0.765785
5970 0.765746
5975 0.765707
5980 0.765669
5985 0.76563
5990 0.765592
5995 0.765553
6000 0.765515
6005 0.765477
6010 0.765438
6015 0.7654
6020 0.765362
6025 0.765324
6030 0.765286
6035 0.765249
6040 0.765211
6045 0.765173
6050 0.765135
6055 0.765098
6060 0.76506
6065 0.765023
6070 0.764986
6075 0.764949
6080 0.764911
6085 0.764874
6090 0.764837
6095 0.7648
6100 0.764763
6105 0.764727
6110 0.76469
6115 0.764653
6120 0.764617
6125 0.76458
6130 0.764544
6135 0.764507
6140 0.764471
6145 0.764435
6150 0.764398
6155 0.764362
6160 0.764326
6165 0.76429
6170 0.764254
6175 0.764219
6180 0.764183
6185 0.764147
6190 0.764112
6195 0.764076
6200 0.764041
6205 0.764005
6210 0.76397
6215 0.763935
6220 0.7639
6225 0.763864
6230 0.763829
6235 0.763794
6240 0.76376
6245 0.763725
6250 0.76369
6255 0.763655
6260 0.763621
6265 0.763586
6270 0.763552
6275 0.763517
6280 0.763483
6285 0.763449
6290 0.763415
6295 0.763381
6300 0.763347
6305 0.763313
6310 0.763279
6315 0.763245
6320 0.763211
6325 0.763177
6330 0.763144
6335 0.76311
6340 0.763077
6345 0.763043
6350 0.76301
6355 0.762977
6360 0.762944
6365 0.762911
6370 0.762878
6375 0.762845
6380 0.762812
6385 0.762779
6390 0.762746
6395 0.762713
6400 0.762681
6405 0.762648
6410 0.762616
6415 0.762583
6420 0.762551
6425 0.762519
6430 0.762486
6435 0.762454
6440 0.762422
6445 0.76239
6450 0.762358
6455 0.762326
6460 0.762295
6465 0.762263
6470 0.762231
6475 0.7622
6480 0.762168
6485 0.762137
6490 0.762105
6495 0.762074
6500 0.762043
6505 0.762012
6510 0.761981
6515 0.76195
6520 0.761919
6525 0.761888
6530 0.761857
6535 0.761826
6540 0.761795
6545 0.761765
6550 0.761734
6555 0.761704
6560 0.761673
6565 0.761643
6570 0.761613
6575 0.761582
6580 0.761552
6585 0.761522
6590 0.761492
6595 0.761462
6600 0.761432
6605 0.761403
6610 0.761373
6615 0.761343
6620 0.761313
6625 0.761284
6630 0.761254
6635 0.761225
6640 0.761196
6645 0.761166
6650 0.761137
6655 0.761108
6660 0.761079
6665 0.76105
6670 0.761021
6675 0.760992
6680 0.760963
6685 0.760935
6690 0.760906
6695 0.760877
6700 0.760849
6705 0.76082
6710 0.760792
6715 0.760763
6720 0.760735
6725 0.760707
6730 0.760679
6735 0.760651
6740 0.760623
6745 0.760595
6750 0.760567
6755 0.760539
6760 0.760511
6765 0.760483
6770 0.760456
6775 0.760428
6780 0.760401
6785 0.760373
6790 0.760346
6795 0.760318
6800 0.760291
6805 0.760264
6810 0.760237
6815 0.76021
6820 0.760183
6825 0.760156
6830 0.760129
6835 0.760102
6840 0.760075
6845 0.760049
6850 0.760022
6855 0.759995
6860 0.759969
6865 0.759942
6870 0.759916
6875 0.75989
6880 0.759864
6885 0.759837
6890 0.759811
6895 0.759785
6900 0.759759
6905 0.759733
6910 0.759707
6915 0.759681
6920 0.759656
6925 0.75963
6930 0.759604
6935 0.759579
6940 0.759553
6945 0.759528
6950 0.759502
6955 0.759477
6960 0.759452
6965 0.759427
6970 0.759402
6975 0.759376
6980 0.759351
6985 0.759326
6990 0.759302
6995 0.759277
7000 0.759252
7005 0.759227
7010 0.759203
7015 0.759178
7020 0.759153
7025 0.759129
7030 0.759104
7035 0.75908
7040 0.759056
7045 0.759032
7050 0.759007
7055 0.758983
7060 0.758959
7065 0.758935
7070 0.758911
7075 0.758887
7080 0.758864
7085 0.75884
7090 0.758816
7095 0.758792
7100 0.758769
7105 0.758745
7110 0.758722
7115 0.758698
7120 0.758675
7125 0.758652
7130 0.758629
7135 0.758605
7140 0.758582
7145 0.758559
7150 0.758536
7155 0.758513
7160 0.75849
7165 0.758467
7170 0.758445
7175 0.758422
7180 0.758399
7185 0.758377
7190 0.758354
7195 0.758332
7200 0.758309
7205 0.758287
7210 0.758264
7215 0.758242
7220 0.75822
7225 0.758198
7230 0.758176
7235 0.758154
7240 0.758132
7245 0.75811
7250 0.758088
7255 0.758066
7260 0.758044
7265 0.758023
7270 0.758001
7275 0.757979
7280 0.757958
7285 0.757936
7290 0.757915
7295 0.757894
7300 0.757872
7305 0.757851
7310 0.75783
7315 0.757809
7320 0.757788
7325 0.757767
7330 0.757746
7335 0.757725
7340 0.757704
7345 0.757683
7350 0.757662
7355 0.757642
7360 0.757621
7365 0.7576
7370 0.75758
7375 0.757559
7380 0.757539
7385 0.757518
7390 0.757498
7395 0.757478
7400 0.757458
7405 0.757437
7410 0.757417
7415 0.757397
7420 0.757377
7425 0.757357
7430 0.757337
7435 0.757318
7440 0.757298
7445 0.757278
7450 0.757258
7455 0.757239
7460 0.757219
7465 0.7572
7470 0.75718
7475 0.757161
7480 0.757141
7485 0.757122
7490 0.757103
7495 0.757084
7500 0.757064
7505 0.757045
7510 0.757026
7515 0.757007
7520 0.756988
7525 0.756969
7530 0.756951
7535 0.756932
7540 0.756913
7545 0.756894
7550 0.756876
7555 0.756857
7560 0.756839
7565 0.75682
7570 0.756802
7575 0.756783
7580 0.756765
7585 0.756747
7590 0.756729
7595 0.75671
7600 0.756692
7605 0.756674
7610 0.756656
7615 0.756638
7620 0.75662
7625 0.756602
7630 0.756585
7635 0.756567
7640 0.756549
7645 0.756531
7650 0.756514
7655 0.756496
7660 0.756479
7665 0.756461
7670 0.756444
7675 0.756426
7680 0.756409
7685 0.756392
7690 0.756375
7695 0.756357
7700 0.75634
7705 0.756323
7710 0.756306
7715 0.756289
7720 0.756272
7725 0.756256
7730 0.756239
7735 0.756222
7740 0.756205
7745 0.756189
7750 0.756172
7755 0.756155
7760 0.756139
7765 0.756122
7770 0.756106
7775 0.75609
7780 0.756073
7785 0.756057
7790 0.756041
7795 0.756024
7800 0.756008
7805 0.755992
7810 0.755976
7815 0.75596
7820 0.755944
7825 0.755928
7830 0.755912
7835 0.755897
7840 0.755881
7845 0.755865
7850 0.75585
7855 0.755834
7860 0.755818
7865 0.755803
7870 0.755787
7875 0.755772
7880 0.755757
7885 0.755741
7890 0.755726
7895 0.755711
7900 0.755696
7905 0.75568
7910 0.755665
7915 0.75565
7920 0.755635
7925 0.75562
7930 0.755605
7935 0.755591
7940 0.755576
7945 0.755561
7950 0.755546
7955 0.755532
7960 0.755517
7965 0.755502
7970 0.755488
7975 0.755473
7980 0.755459
7985 0.755444
7990 0.75543
7995 0.755416
8000 0.755402
8005 0.755387
8010 0.755373
8015 0.755359
8020 0.755345
8025 0.755331
8030 0.755317
8035 0.755303
8040 0.755289
8045 0.755275
8050 0.755261
8055 0.755248
8060 0.755234
8065 0.75522
8070 0.755207
8075 0.755193
8080 0.75518
8085 0.755166
8090 0.755153
8095 0.755139
8100 0.755126
8105 0.755113
8110 0.755099
8115 0.755086
8120 0.755073
8125 0.75506
8130 0.755047
8135 0.755034
8140 0.755021
8145 0.755008
8150 0.754995
8155 0.754982
8160 0.754969
8165 0.754956
8170 0.754943
8175 0.754931
8180 0.754918
8185 0.754905
8190 0.754893
8195 0.75488
8200 0.754868
8205 0.754855
8210 0.754843
8215 0.754831
8220 0.754818
8225 0.754806
8230 0.754794
8235 0.754782
8240 0.75477
8245 0.754758
8250 0.754745
8255 0.754733
8260 0.754722
8265 0.75471
8270 0.754698
8275 0.754686
8280 0.754674
8285 0.754662
8290 0.754651
8295 0.754639
8300 0.754627
8305 0.754616
8310 0.754604
8315 0.754593
8320 0.754581
8325 0.75457
8330 0.754559
8335 0.754547
8340 0.754536
8345 0.754525
8350 0.754513
8355 0.754502
8360 0.754491
8365 0.75448
8370 0.754469
8375 0.754458
8380 0.754447
8385 0.754436
8390 0.754425
8395 0.754415
8400 0.754404
8405 0.754393
8410 0.754382
8415 0.754372
8420 0.754361
8425 0.75435
8430 0.75434
8435 0.754329
8440 0.754319
8445 0.754309
8450 0.754298
8455 0.754288
8460 0.754278
8465 0.754267
8470 0.754257
8475 0.754247
8480 0.754237
8485 0.754227
8490 0.754217
8495 0.754207
8500 0.754197
8505 0.754187
8510 0.754177
8515 0.754167
8520 0.754157
8525 0.754147
8530 0.754138
8535 0.754128
8540 0.754118
8545 0.754109
8550 0.754099
8555 0.75409
8560 0.75408
8565 0.754071
8570 0.754062
8575 0.754052
8580 0.754043
8585 0.754034
8590 0.754025
8595 0.754016
8600 0.754007
8605 0.753998
8610 0.753989
8615 0.75398
8620 0.753971
8625 0.753962
8630 0.753954
8635 0.753945
8640 0.753936
8645 0.753928
8650 0.753919
8655 0.753911
8660 0.753902
8665 0.753894
8670 0.753885
8675 0.753877
8680 0.753869
8685 0.75386
8690 0.753852
8695 0.753844
8700 0.753836
8705 0.753828
8710 0.75382
8715 0.753812
8720 0.753804
8725 0.753796
8730 0.753788
8735 0.75378
8740 0.753772
8745 0.753764
8750 0.753756
8755 0.753749
8760 0.753741
8765 0.753733
8770 0.753726
8775 0.753718
8780 0.75371
8785 0.753703
8790 0.753695
8795 0.753688
8800 0.753681
8805 0.753673
8810 0.753666
8815 0.753658
8820 0.753651
8825 0.753644
8830 0.753637
8835 0.753629
8840 0.753622
8845 0.753615
8850 0.753608
8855 0.753601
8860 0.753594
8865 0.753587
8870 0.75358
8875 0.753573
8880 0.753566
8885 0.753559
8890 0.753553
8895 0.753546
8900 0.753539
8905 0.753532
8910 0.753526
8915 0.753519
8920 0.753512
8925 0.753506
8930 0.753499
8935 0.753493
8940 0.753486
8945 0.75348
8950 0.753473
8955 0.753467
8960 0.753461
8965 0.753454
8970 0.753448
8975 0.753442
8980 0.753436
8985 0.753429
8990 0.753423
8995 0.753417
9000 0.753411
9005 0.753405
9010 0.753399
9015 0.753393
9020 0.753387
9025 0.753381
9030 0.753375
9035 0.753369
9040 0.753363
9045 0.753358
9050 0.753352
9055 0.753346
9060 0.75334
9065 0.753335
9070 0.753329
9075 0.753323
9080 0.753318
9085 0.753312
9090 0.753307
9095 0.753301
9100 0.753296
9105 0.75329
9110 0.753285
9115 0.75328
9120 0.753274
9125 0.753269
9130 0.753264
9135 0.753259
9140 0.753253
9145 0.753248
9150 0.753243
9155 0.753238
9160 0.753233
9165 0.753228
9170 0.753223
9175 0.753218
9180 0.753213
9185 0.753208
9190 0.753203
9195 0.753198
9200 0.753194
9205 0.753189
9210 0.753184
9215 0.753179
9220 0.753175
9225 0.75317
9230 0.753165
9235 0.753161
9240 0.753156
9245 0.753152
9250 0.753147
9255 0.753143
9260 0.753138
9265 0.753134
9270 0.75313
9275 0.753125
9280 0.753121
9285 0.753117
9290 0.753112
9295 0.753108
9300 0.753104
9305 0.7531
9310 0.753096
9315 0.753092
9320 0.753088
9325 0.753084
9330 0.75308
9335 0.753076
9340 0.753072
9345 0.753068
9350 0.753064
9355 0.75306
9360 0.753056
9365 0.753053
9370 0.753049
9375 0.753045
9380 0.753041
9385 0.753038
9390 0.753034
9395 0.753031
9400 0.753027
9405 0.753023
9410 0.75302
9415 0.753017
9420 0.753013
9425 0.75301
9430 0.753006
9435 0.753003
9440 0.753
9445 0.752996
9450 0.752993
9455 0.75299
9460 0.752987
9465 0.752984
9470 0.752981
9475 0.752977
9480 0.752974
9485 0.752971
9490 0.752968
9495 0.752965
9500 0.752962
9505 0.75296
9510 0.752957
9515 0.752954
9520 0.752951
9525 0.752948
9530 0.752946
9535 0.752943
9540 0.75294
9545 0.752937
9550 0.752935
9555 0.752932
9560 0.75293
9565 0.752927
9570 0.752925
9575 0.752922
9580 0.75292
9585 0.752917
9590 0.752915
9595 0.752913
9600 0.75291
9605 0.752908
9610 0.752906
9615 0.752904
9620 0.752901
9625 0.752899
9630 0.752897
9635 0.752895
9640 0.752893
9645 0.752891
9650 0.752889
9655 0.752887
9660 0.752885
9665 0.752883
9670 0.752881
9675 0.752879
9680 0.752877
9685 0.752876
9690 0.752874
9695 0.752872
9700 0.75287
9705 0.752869
9710 0.752867
9715 0.752865
9720 0.752864
9725 0.752862
9730 0.752861
9735 0.752859
9740 0.752858
9745 0.752856
9750 0.752855
9755 0.752854
9760 0.752852
9765 0.752851
9770 0.75285
9775 0.752848
9780 0.752847
9785 0.752846
9790 0.752845
9795 0.752844
9800 0.752843
9805 0.752841
9810 0.75284
9815 0.752839
9820 0.752838
9825 0.752837
9830 0.752836
9835 0.752836
9840 0.752835
9845 0.752834
9850 0.752833
9855 0.752832
9860 0.752832
9865 0.752831
9870 0.75283
9875 0.752829
9880 0.752829
9885 0.752828
9890 0.752828
9895 0.752827
9900 0.752827
9905 0.752826
9910 0.752826
9915 0.752825
9920 0.752825
9925 0.752824
9930 0.752824
9935 0.752824
9940 0.752823
9945 0.752823
9950 0.752823
9955 0.752823
9960 0.752823
9965 0.752822
9970 0.752822
9975 0.752822
9980 0.752822
9985 0.752822
9990 0.752822
9995 0.752822
10000 0.752822
10005 0.752822
10010 0.752822
10015 0.752823
10020 0.752823
10025 0.752823
10030 0.752823
10035 0.752823
10040 0.752824
10045 0.752824
10050 0.752824
10055 0.752825
10060 0.752825
10065 0.752826
10070 0.752826
10075 0.752826
10080 0.752827
10085 0.752828
10090 0.752828
10095 0.752829
10100 0.752829
10105 0.75283
10110 0.752831
10115 0.752831
10120 0.752832
10125 0.752833
10130 0.752834
10135 0.752834
10140 0.752835
10145 0.752836
10150 0.752837
10155 0.752838
10160 0.752839
10165 0.75284
10170 0.752841
10175 0.752842
10180 0.752843
10185 0.752844
10190 0.752845
10195 0.752846
10200 0.752848
10205 0.752849
10210 0.75285
10215 0.752851
10220 0.752853
10225 0.752854
10230 0.752855
10235 0.752857
10240 0.752858
10245 0.75286
10250 0.752861
10255 0.752862
10260 0.752864
10265 0.752866
10270 0.752867
10275 0.752869
10280 0.75287
10285 0.752872
10290 0.752874
10295 0.752875
10300 0.752877
10305 0.752879
10310 0.752881
10315 0.752882
10320 0.752884
10325 0.752886
10330 0.752888
10335 0.75289
10340 0.752892
10345 0.752894
10350 0.752896
10355 0.752898
10360 0.7529
10365 0.752902
10370 0.752904
10375 0.752906
10380 0.752908
10385 0.752911
10390 0.752913
10395 0.752915
10400 0.752917
10405 0.75292
10410 0.752922
10415 0.752924
10420 0.752927
10425 0.752929
10430 0.752931
10435 0.752934
10440 0.752936
10445 0.752939
10450 0.752941
10455 0.752944
10460 0.752946
10465 0.752949
10470 0.752952
10475 0.752954
10480 0.752957
10485 0.75296
10490 0.752962
10495 0.752965
10500 0.752968
10505 0.752971
10510 0.752974
10515 0.752976
10520 0.752979
10525 0.752982
10530 0.752985
10535 0.752988
10540 0.752991
10545 0.752994
10550 0.752997
10555 0.753
10560 0.753003
10565 0.753006
10570 0.75301
10575 0.753013
10580 0.753016
10585 0.753019
10590 0.753022
10595 0.753026
10600 0.753029
10605 0.753032
10610 0.753036
10615 0.753039
10620 0.753042
10625 0.753046
10630 0.753049
10635 0.753053
10640 0.753056
10645 0.75306
10650 0.753063
10655 0.753067
10660 0.75307
10665 0.753074
10670 0.753078
10675 0.753081
10680 0.753085
10685 0.753089
10690 0.753092
10695 0.753096
10700 0.7531
10705 0.753104
10710 0.753108
10715 0.753112
10720 0.753116
10725 0.753119
10730 0.753123
10735 0.753127
10740 0.753131
10745 0.753136
10750 0.75314
10755 0.753144
10760 0.753148
10765 0.753152
10770 0.753156
10775 0.75316
10780 0.753165
10785 0.753169
10790 0.753173
10795 0.753178
10800 0.753182
10805 0.753186
10810 0.753191
10815 0.753195
10820 0.7532
10825 0.753204