10 0.293019
20 0.270407
30 0.256152
40 0.247133
50 0.241538
60 0.238262
70 0.236601
80 0.236093
90 0.236422
100 0.237375
110 0.238801
120 0.240595
130 0.242683
140 0.245012
150 0.247545
160 0.250256
170 0.253129
180 0.256153
190 0.259325
200 0.262642
210 0.266106
220 0.26972
230 0.273488
240 0.277418
250 0.281516
260 0.285789
270 0.290247
280 0.2949
290 0.29976
300 0.304838
310 0.310145
320 0.315696
330 0.321504
340 0.327585
350 0.333957
360 0.340635
370 0.347641
380 0.354995
390 0.362719
400 0.370837
410 0.379377
420 0.388368
430 0.397842
440 0.407834
450 0.418382
460 0.429526
470 0.441314
480 0.453796
490 0.467028
500 0.48107
510 0.49599
520 0.511861
530 0.528768
540 0.546798
550 0.566051
560 0.586639
570 0.608686
580 0.632327
590 0.65771
600 0.685003
610 0.71439
620 0.746075
630 0.780284
640 0.817269
650 0.857305
660 0.900699
670 0.947788
680 0.998932
690 1.05451
700 1.1149
710 1.1804
720 1.25116
730 1.32699
740 1.40701
750 1.4891
760 1.5688
770 1.6376
780 1.68021
790 1.67198
800 1.58395
810 1.40995
820 1.20109
830 1.02985
840 0.926768
850 0.885615
860 0.890154
870 0.922888
880 0.968747
890 1.01524
900 1.0516
910 1.06988
920 1.0668
930 1.04503
940 1.01309
950 0.981066
960 0.956684
970 0.943558
980 0.941595
990 0.948194
1000 0.959457
1010 0.971216
1020 0.979905
1030 0.983266
1040 0.980742
1050 0.973421
1060 0.963484
1070 0.953407
1080 0.945206
1090 0.940012
1100 0.937986
1110 0.938503
1120 0.940465
1130 0.942652
1140 0.944022
1150 0.943933
1160 0.942226
1170 0.939188
1180 0.935394
1190 0.931511
1200 0.928106
1210 0.92553
1220 0.923867
1230 0.922972
1240 0.922552
1250 0.922259
1260 0.921787
1270 0.920938
1280 0.919649
1290 0.917982
1300 0.916085
1310 0.914142
1320 0.912317
1330 0.91072
1340 0.909392
1350 0.908304
1360 0.907381
1370 0.906526
1380 0.905651
1390 0.904692
1400 0.903623
1410 0.902452
1420 0.901216
1430 0.899963
1440 0.898741
1450 0.897585
1460 0.89651
1470 0.895513
1480 0.894577
1490 0.893676
1500 0.892783
1510 0.89188
1520 0.890955
1530 0.890008
1540 0.889048
1550 0.888088
1560 0.887141
1570 0.886217
1580 0.885323
1590 0.884458
1600 0.88362
1610 0.8828
1620 0.881991
1630 0.881186
1640 0.880382
1650 0.879577
1660 0.878773
1670 0.877972
1680 0.877178
1690 0.876395
1700 0.875624
1710 0.874865
1720 0.87412
1730 0.873384
1740 0.872657
1750 0.871937
1760 0.871222
1770 0.870512
1780 0.869807
1790 0.869108
1800 0.868416
1810 0.867732
1820 0.867056
1830 0.866388
1840 0.865729
1850 0.865078
1860 0.864433
1870 0.863795
1880 0.863162
1890 0.862534
1900 0.861912
1910 0.861294
1920 0.860681
1930 0.860073
1940 0.859471
1950 0.858874
1960 0.858282
1970 0.857696
1980 0.857114
1990 0.856538
2000 0.855966
2010 0.855398
2020 0.854835
2030 0.854276
2040 0.853721
2050 0.853171
2060 0.852625
2070 0.852083
2080 0.851545
2090 0.851012
2100 0.850483
2110 0.849959
2120 0.849438
2130 0.848922
2140 0.84841
2150 0.847902
2160 0.847398
2170 0.846897
2180 0.8464
2190 0.845906
2200 0.845416
2210 0.844929
2220 0.844446
2230 0.843965
2240 0.843489
2250 0.843015
2260 0.842545
2270 0.842079
2280 0.841616
2290 0.841156
2300 0.8407
2310 0.840246
2320 0.839796
2330 0.839349
2340 0.838905
2350 0.838465
2360 0.838027
2370 0.837592
2380 0.83716
2390 0.836731
2400 0.836305
2410 0.835881
2420 0.835461
2430 0.835043
2440 0.834628
2450 0.834216
2460 0.833806
2470 0.833398
2480 0.832994
2490 0.832592
2500 0.832192
2510 0.831796
2520 0.831402
2530 0.83101
2540 0.830621
2550 0.830235
2560 0.829851
2570 0.829469
2580 0.82909
2590 0.828713
2600 0.828339
2610 0.827966
2620 0.827596
2630 0.827228
2640 0.826862
2650 0.826499
2660 0.826137
2670 0.825777
2680 0.82542
2690 0.825064
2700 0.824711
2710 0.824359
2720 0.82401
2730 0.823662
2740 0.823317
2750 0.822973
2760 0.822631
2770 0.822291
2780 0.821953
2790 0.821617
2800 0.821282
2810 0.82095
2820 0.820619
2830 0.82029
2840 0.819963
2850 0.819638
2860 0.819314
2870 0.818992
2880 0.818672
2890 0.818354
2900 0.818037
2910 0.817722
2920 0.817409
2930 0.817097
2940 0.816787
2950 0.816479
2960 0.816172
2970 0.815867
2980 0.815563
2990 0.815261
3000 0.814961
3010 0.814662
3020 0.814365
3030 0.814069
3040 0.813775
3050 0.813483
3060 0.813192
3070 0.812903
3080 0.812615
3090 0.812329
3100 0.812045
3110 0.811762
3120 0.811481
3130 0.811201
3140 0.810923
3150 0.810646
3160 0.81037
3170 0.810096
3180 0.809823
3190 0.809552
3200 0.809282
3210 0.809014
3220 0.808746
3230 0.80848
3240 0.808216
3250 0.807953
3260 0.807691
3270 0.80743
3280 0.807171
3290 0.806912
3300 0.806656
3310 0.8064
3320 0.806146
3330 0.805892
3340 0.80564
3350 0.80539
3360 0.80514
3370 0.804892
3380 0.804645
3390 0.804399
3400 0.804154
3410 0.80391
3420 0.803668
3430 0.803427
3440 0.803186
3450 0.802947
3460 0.802709
3470 0.802473
3480 0.802237
3490 0.802002
3500 0.801769
3510 0.801537
3520 0.801305
3530 0.801075
3540 0.800846
3550 0.800618
3560 0.800391
3570 0.800165
3580 0.79994
3590 0.799717
3600 0.799494
3610 0.799272
3620 0.799051
3630 0.798832
3640 0.798613
3650 0.798395
3660 0.798179
3670 0.797963
3680 0.797748
3690 0.797535
3700 0.797322
3710 0.79711
3720 0.796899
3730 0.79669
3740 0.796481
3750 0.796273
3760 0.796066
3770 0.79586
3780 0.795655
3790 0.795451
3800 0.795247
3810 0.795045
3820 0.794844
3830 0.794643
3840 0.794444
3850 0.794245
3860 0.794047
3870 0.79385
3880 0.793654
3890 0.793459
3900 0.793265
3910 0.793072
3920 0.79288
3930 0.792689
3940 0.792498
3950 0.792309
3960 0.79212
3970 0.791933
3980 0.791746
3990 0.791559
4000 0.791374
4010 0.79119
4020 0.791006
4030 0.790823
4040 0.790641
4050 0.79046
4060 0.79028
4070 0.7901
4080 0.789921
4090 0.789743
4100 0.789566
4110 0.789389
4120 0.789213
4130 0.789038
4140 0.788864
4150 0.788691
4160 0.788518
4170 0.788346
4180 0.788174
4190 0.788004
4200 0.787834
4210 0.787665
4220 0.787496
4230 0.787329
4240 0.787162
4250 0.786995
4260 0.78683
4270 0.786665
4280 0.786501
4290 0.786337
4300 0.786174
4310 0.786012
4320 0.785851
4330 0.78569
4340 0.78553
4350 0.785371
4360 0.785212
4370 0.785054
4380 0.784896
4390 0.78474
4400 0.784584
4410 0.784428
4420 0.784273
4430 0.784119
4440 0.783966
4450 0.783813
4460 0.783661
4470 0.783509
4480 0.783358
4490 0.783208
4500 0.783058
4510 0.782909
4520 0.782761
4530 0.782613
4540 0.782465
4550 0.782319
4560 0.782173
4570 0.782027
4580 0.781883
4590 0.781738
4600 0.781595
4610 0.781452
4620 0.78131
4630 0.781168
4640 0.781026
4650 0.780886
4660 0.780746
4670 0.780606
4680 0.780467
4690 0.780329
4700 0.780191
4710 0.780054
4720 0.779917
4730 0.779781
4740 0.779646
4750 0.779511
4760 0.779377
4770 0.779243
4780 0.779109
4790 0.778977
4800 0.778845
4810 0.778713
4820 0.778582
4830 0.778451
4840 0.778321
4850 0.778192
4860 0.778063
4870 0.777934
4880 0.777806
4890 0.777679
4900 0.777552
4910 0.777426
4920 0.7773
4930 0.777175
4940 0.77705
4950 0.776926
4960 0.776802
4970 0.776679
4980 0.776556
4990 0.776434
5000 0.776312
5010 0.77619
5020 0.77607
5030 0.775949
5040 0.77583
5050 0.77571
5060 0.775592
5070 0.775473
5080 0.775355
5090 0.775238
5100 0.775121
5110 0.775005
5120 0.774889
5130 0.774774
5140 0.774659
5150 0.774545
5160 0.774431
5170 0.774318
5180 0.774205
5190 0.774092
5200 0.773981
5210 0.773869
5220 0.773758
5230 0.773648
5240 0.773538
5250 0.773428
5260 0.773319
5270 0.77321
5280 0.773102
5290 0.772994
5300 0.772887
5310 0.77278
5320 0.772673
5330 0.772567
5340 0.772462
5350 0.772357
5360 0.772252
5370 0.772147
5380 0.772043
5390 0.77194
5400 0.771837
5410 0.771734
5420 0.771632
5430 0.77153
5440 0.771429
5450 0.771328
5460 0.771227
5470 0.771127
5480 0.771027
5490 0.770928
5500 0.770829
5510 0.77073
5520 0.770632
5530 0.770534
5540 0.770437
5550 0.77034
5560 0.770243
5570 0.770147
5580 0.770051
5590 0.769956
5600 0.769861
5610 0.769766
5620 0.769672
5630 0.769578
5640 0.769485
5650 0.769391
5660 0.769299
5670 0.769206
5680 0.769114
5690 0.769023
5700 0.768931
5710 0.768841
5720 0.76875
5730 0.76866
5740 0.76857
5750 0.768481
5760 0.768392
5770 0.768303
5780 0.768215
5790 0.768127
5800 0.768039
5810 0.767952
5820 0.767865
5830 0.767779
5840 0.767692
5850 0.767607
5860 0.767521
5870 0.767436
5880 0.767351
5890 0.767267
5900 0.767183
5910 0.767099
5920 0.767016
5930 0.766933
5940 0.766851
5950 0.766769
5960 0.766687
5970 0.766606
5980 0.766525
5990 0.766444
6000 0.766364
6010 0.766284
6020 0.766205
6030 0.766126
6040 0.766047
6050 0.765969
6060 0.765891
6070 0.765813
6080 0.765735
6090 0.765658
6100 0.765581
6110 0.765505
6120 0.765428
6130 0.765353
6140 0.765277
6150 0.765202
6160 0.765126
6170 0.765052
6180 0.764977
6190 0.764903
6200 0.764829
6210 0.764756
6220 0.764682
6230 0.764609
6240 0.764537
6250 0.764464
6260 0.764392
6270 0.76432
6280 0.764249
6290 0.764178
6300 0.764107
6310 0.764036
6320 0.763966
6330 0.763896
6340 0.763826
6350 0.763756
6360 0.763687
6370 0.763618
6380 0.763549
6390 0.763481
6400 0.763413
6410 0.763345
6420 0.763277
6430 0.76321
6440 0.763143
6450 0.763077
6460 0.76301
6470 0.762944
6480 0.762878
6490 0.762813
6500 0.762747
6510 0.762682
6520 0.762618
6530 0.762553
6540 0.762489
6550 0.762425
6560 0.762361
6570 0.762298
6580 0.762235
6590 0.762172
6600 0.762109
6610 0.762047
6620 0.761985
6630 0.761923
6640 0.761862
6650 0.761801
6660 0.76174
6670 0.761679
6680 0.761619
6690 0.761559
6700 0.761499
6710 0.761439
6720 0.76138
6730 0.761321
6740 0.761262
6750 0.761204
6760 0.761145
6770 0.761087
6780 0.76103
6790 0.760972
6800 0.760915
6810 0.760858
6820 0.760801
6830 0.760745
6840 0.760689
6850 0.760633
6860 0.760577
6870 0.760521
6880 0.760466
6890 0.760411
6900 0.760357
6910 0.760302
6920 0.760248
6930 0.760194
6940 0.760141
6950 0.760087
6960 0.760034
6970 0.759981
6980 0.759929
6990 0.759876
7000 0.759824
7010 0.759772
7020 0.75972
7030 0.759669
7040 0.759618
7050 0.759567
7060 0.759516
7070 0.759466
7080 0.759416
7090 0.759366
7100 0.759316
7110 0.759267
7120 0.759217
7130 0.759169
7140 0.75912
7150 0.759071
7160 0.759023
7170 0.758975
7180 0.758928
7190 0.75888
7200 0.758833
7210 0.758786
7220 0.758739
7230 0.758693
7240 0.758646
7250 0.7586
7260 0.758554
7270 0.758509
7280 0.758463
7290 0.758418
7300 0.758373
7310 0.758329
7320 0.758284
7330 0.75824
7340 0.758196
7350 0.758152
7360 0.758109
7370 0.758065
7380 0.758022
7390 0.757979
7400 0.757937
7410 0.757894
7420 0.757852
7430 0.75781
7440 0.757768
7450 0.757727
7460 0.757685
7470 0.757644
7480 0.757603
7490 0.757563
7500 0.757522
7510 0.757482
7520 0.757442
7530 0.757402
7540 0.757362
7550 0.757323
7560 0.757284
7570 0.757244
7580 0.757206
7590 0.757167
7600 0.757129
7610 0.757091
7620 0.757053
7630 0.757015
7640 0.756978
7650 0.75694
7660 0.756904
7670 0.756867
7680 0.75683
7690 0.756794
7700 0.756758
7710 0.756722
7720 0.756687
7730 0.756651
7740 0.756616
7750 0.756581
7760 0.756547
7770 0.756512
7780 0.756478
7790 0.756443
7800 0.756409
7810 0.756376
7820 0.756342
7830 0.756308
7840 0.756275
7850 0.756242
7860 0.756209
7870 0.756177
7880 0.756144
7890 0.756112
7900 0.756079
7910 0.756047
7920 0.756016
7930 0.755984
7940 0.755953
7950 0.755921
7960 0.75589
7970 0.755859
7980 0.755829
7990 0.755798
8000 0.755768
8010 0.755737
8020 0.755707
8030 0.755677
8040 0.755648
8050 0.755618
8060 0.755589
8070 0.75556
8080 0.755531
8090 0.755502
8100 0.755473
8110 0.755445
8120 0.755416
8130 0.755388
8140 0.75536
8150 0.755333
8160 0.755305
8170 0.755277
8180 0.75525
8190 0.755223
8200 0.755196
8210 0.755169
8220 0.755143
8230 0.755116
8240 0.75509
8250 0.755064
8260 0.755038
8270 0.755012
8280 0.754987
8290 0.754961
8300 0.754936
8310 0.754911
8320 0.754886
8330 0.754861
8340 0.754837
8350 0.754812
8360 0.754788
8370 0.754764
8380 0.75474
8390 0.754716
8400 0.754693
8410 0.754669
8420 0.754646
8430 0.754623
8440 0.7546
8450 0.754577
8460 0.754555
8470 0.754532
8480 0.75451
8490 0.754488
8500 0.754466
8510 0.754444
8520 0.754422
8530 0.754401
8540 0.75438
8550 0.754359
8560 0.754338
8570 0.754317
8580 0.754296
8590 0.754276
8600 0.754255
8610 0.754235
8620 0.754215
8630 0.754195
8640 0.754175
8650 0.754156
8660 0.754137
8670 0.754117
8680 0.754098
8690 0.754079
8700 0.754061
8710 0.754042
8720 0.754024
8730 0.754005
8740 0.753987
8750 0.753969
8760 0.753951
8770 0.753934
8780 0.753916
8790 0.753899
8800 0.753882
8810 0.753865
8820 0.753848
8830 0.753831
8840 0.753814
8850 0.753798
8860 0.753782
8870 0.753765
8880 0.753749
8890 0.753734
8900 0.753718
8910 0.753702
8920 0.753687
8930 0.753672
8940 0.753657
8950 0.753642
8960 0.753627
8970 0.753612
8980 0.753598
8990 0.753584
9000 0.75357
9010 0.753556
9020 0.753542
9030 0.753528
9040 0.753515
9050 0.753502
9060 0.753489
9070 0.753476
9080 0.753463
9090 0.75345
9100 0.753438
9110 0.753425
9120 0.753413
9130 0.753401
9140 0.753389
9150 0.753378
9160 0.753366
9170 0.753355
9180 0.753343
9190 0.753332
9200 0.753321
9210 0.75331
9220 0.753299
9230 0.753289
9240 0.753278
9250 0.753268
9260 0.753257
9270 0.753247
9280 0.753237
9290 0.753227
9300 0.753218
9310 0.753208
9320 0.753198
9330 0.753189
9340 0.75318
9350 0.753171
9360 0.753162
9370 0.753153
9380 0.753144
9390 0.753136
9400 0.753127
9410 0.753119
9420 0.753111
9430 0.753103
9440 0.753095
9450 0.753087
9460 0.753079
9470 0.753072
9480 0.753064
9490 0.753057
9500 0.75305
9510 0.753043
9520 0.753036
9530 0.753029
9540 0.753022
9550 0.753016
9560 0.753009
9570 0.753003
9580 0.752997
9590 0.752991
9600 0.752985
9610 0.752979
9620 0.752973
9630 0.752968
9640 0.752962
9650 0.752957
9660 0.752952
9670 0.752946
9680 0.752941
9690 0.752937
9700 0.752932
9710 0.752927
9720 0.752923
9730 0.752918
9740 0.752914
9750 0.75291
9760 0.752906
9770 0.752902
9780 0.752898
9790 0.752895
9800 0.752891
9810 0.752888
9820 0.752884
9830 0.752881
9840 0.752878
9850 0.752875
9860 0.752873
9870 0.75287
9880 0.752867
9890 0.752865
9900 0.752862
9910 0.75286
9920 0.752858
9930 0.752856
9940 0.752854
9950 0.752852
9960 0.752851
9970 0.752849
9980 0.752848
9990 0.752847
10000 0.752845
10010 0.752844
10020 0.752843
10030 0.752843
10040 0.752842
10050 0.752841
10060 0.752841
10070 0.75284
10080 0.75284
10090 0.75284
10100 0.75284
10110 0.75284
10120 0.752841
10130 0.752841
10140 0.752841
10150 0.752842
10160 0.752843
10170 0.752844
10180 0.752845
10190 0.752846
10200 0.752847
10210 0.752849
10220 0.75285
10230 0.752852
10240 0.752853
10250 0.752855
10260 0.752857
10270 0.752859
10280 0.752861
10290 0.752864
10300 0.752866
10310 0.752869
10320 0.752871
10330 0.752874
10340 0.752877
10350 0.75288
10360 0.752883
10370 0.752886
10380 0.752889
10390 0.752892
10400 0.752896
10410 0.752899
10420 0.752903
10430 0.752907
10440 0.752911
10450 0.752915
10460 0.752919
10470 0.752923
10480 0.752927
10490 0.752932
10500 0.752936
10510 0.752941
10520 0.752945
10530 0.75295
10540 0.752955
10550 0.75296
10560 0.752965
10570 0.75297
10580 0.752975
10590 0.752981
10600 0.752986
10610 0.752992
10620 0.752997
10630 0.753003
10640 0.753009
10650 0.753015
10660 0.753021
10670 0.753027
10680 0.753033
10690 0.75304
10700 0.753046
10710 0.753053
10720 0.753059
10730 0.753066
10740 0.753073
10750 0.75308
10760 0.753087
10770 0.753094
10780 0.753101
10790 0.753108
10800 0.753115
10810 0.753123
10820 0.753131
10830 0.753138
10840 0.753146
10850 0.753154
10860 0.753162
10870 0.75317
10880 0.753178
10890 0.753186
10900 0.753194
10910 0.753203
10920 0.753211
10930 0.75322
10940 0.753228
10950 0.753237
10960 0.753246
10970 0.753255
10980 0.753264
10990 0.753273
11000 0.753282
11010 0.753292
11020 0.753301
11030 0.753311
11040 0.75332
11050 0.75333
11060 0.75334
11070 0.75335
11080 0.75336
11090 0.75337
11100 0.75338
11110 0.75339
11120 0.7534
11130 0.753411
11140 0.753421
11150 0.753432
11160 0.753443
11170 0.753453
11180 0.753464
11190 0.753475
11200 0.753486
11210 0.753498
11220 0.753509
11230 0.75352
11240 0.753532
11250 0.753543
11260 0.753555
11270 0.753567
11280 0.753578
11290 0.75359
11300 0.753602
11310 0.753614
11320 0.753627
11330 0.753639
11340 0.753651
11350 0.753664
11360 0.753676
11370 0.753689
11380 0.753702
11390 0.753714
11400 0.753727
11410 0.75374
11420 0.753753
11430 0.753766
11440 0.75378
11450 0.753793
11460 0.753806
11470 0.75382
11480 0.753833
11490 0.753847
11500 0.753861
11510 0.753874
11520 0.753888
11530 0.753902
11540 0.753916
11550 0.75393
11560 0.753945
11570 0.753959
11580 0.753973
11590 0.753988
11600 0.754002
11610 0.754017
11620 0.754031
11630 0.754046
11640 0.754061
11650 0.754076
11660 0.754091
11670 0.754106
11680 0.754121
11690 0.754136
11700 0.754152
11710 0.754167
11720 0.754183
11730 0.754198
11740 0.754214
11750 0.754229
11760 0.754245
11770 0.754261
11780 0.754277
11790 0.754293
11800 0.754309
11810 0.754325
11820 0.754342
11830 0.754358
11840 0.754374
11850 0.754391
11860 0.754407
11870 0.754424
11880 0.754441
11890 0.754457
11900 0.754474
11910 0.754491
11920 0.754508
11930 0.754525
11940 0.754543
11950 0.75456
11960 0.754577
11970 0.754595
11980 0.754612
11990 0.75463
12000 0.754647
12010 0.754665
12020 0.754683
12030 0.754701
12040 0.754719
12050 0.754737
12060 0.754755
12070 0.754773
12080 0.754791
12090 0.754809
12100 0.754828
12110 0.754846
12120 0.754865
12130 0.754883
12140 0.754902
12150 0.754921
12160 0.75494
12170 0.754958
12180 0.754977
12190 0.754996
12200 0.755016
12210 0.755035
12220 0.755054
12230 0.755073
12240 0.755093
12250 0.755112
12260 0.755132
12270 0.755152
12280 0.755171
12290 0.755191
12300 0.755211
12310 0.755231
12320 0.755251
12330 0.755271
12340 0.755291
12350 0.755311
12360 0.755332
12370 0.755352
12380 0.755372
12390 0.755393
12400 0.755413
12410 0.755434
12420 0.755455
12430 0.755476
12440 0.755496
12450 0.755517
12460 0.755538
12470 0.755559
12480 0.75558
12490 0.755602
12500 0.755623
12510 0.755644
12520 0.755666
12530 0.755687
12540 0.755709
12550 0.75573
12560 0.755752
12570 0.755774
12580 0.755796
12590 0.755818
12600 0.75584
12610 0.755862
12620 0.755884
12630 0.755906
12640 0.755928
12650 0.75595
12660 0.755973
12670 0.755995
12680 0.756018
12690 0.75604
12700 0.756063
12710 0.756086
12720 0.756108
12730 0.756131
12740 0.756154
12750 0.756177
12760 0.7562
12770 0.756223
12780 0.756247
12790 0.75627
12800 0.756293
12810 0.756317
12820 0.75634
12830 0.756363
12840 0.756387
12850 0.756411
12860 0.756434
12870 0.756458
12880 0.756482
12890 0.756506
12900 0.75653
12910 0.756554
12920 0.756578
12930 0.756602
12940 0.756626
12950 0.756651
12960 0.756675
12970 0.756699
12980 0.756724
12990 0.756749
13000 0.756773
13010 0.756798
13020 0.756822
13030 0.756847
13040 0.756872
13050 0.756897
13060 0.756922
13070 0.756947
13080 0.756972
13090 0.756997
13100 0.757022
13110 0.757048
13120 0.757073
13130 0.757098
13140 0.757124
13150 0.757149
13160 0.757175
13170 0.7572
13180 0.757226
13190 0.757252
13200 0.757277
13210 0.757303
13220 0.757329
13230 0.757355
13240 0.757381
13250 0.757407
13260 0.757433
13270 0.75746
13280 0.757486
13290 0.757512
13300 0.757539
13310 0.757565
13320 0.757592
13330 0.757618
13340 0.757645
13350 0.757671
13360 0.757698
13370 0.757725
13380 0.757752
13390 0.757779
13400 0.757806
13410 0.757833
13420 0.75786
13430 0.757887
13440 0.757914
13450 0.757942
13460 0.757969
13470 0.757996
13480 0.758024
13490 0.758051
13500 0.758079
13510 0.758106
13520 0.758134
13530 0.758162
13540 0.75819
13550 0.758217
13560 0.758245
13570 0.758273
13580 0.758301
13590 0.758329
13600 0.758357
13610 0.758386
13620 0.758414
13630 0.758442
13640 0.758471
13650 0.758499
13660 0.758528
13670 0.758556
13680 0.758585
13690 0.758614
13700 0.758643
13710 0.758672
13720 0.758701
13730 0.75873
13740 0.75876
13750 0.758789
13760 0.758818
13770 0.758847
13780 0.758877
13790 0.758906
13800 0.758936
13810 0.758965
13820 0.758995
13830 0.759025
13840 0.759054
13850 0.759084
13860 0.759114
13870 0.759144
13880 0.759174
13890 0.759203
13900 0.759233
13910 0.759263
13920 0.759293
13930 0.759324
13940 0.759354
13950 0.759384
13960 0.759414
13970 0.759444
13980 0.759475
13990 0.759505
14000 0.759535
14010 0.759566
14020 0.759596
14030 0.759627
14040 0.759657
14050 0.759688
14060 0.759718
14070 0.759749
14080 0.75978
14090 0.759811
14100 0.759842
14110 0.759872
14120 0.759903
14130 0.759934
14140 0.759965
14150 0.759996
14160 0.760027
14170 0.760059
14180 0.76009
14190 0.760121
14200 0.760152
14210 0.760184
14220 0.760215
14230 0.760247
14240 0.760278
14250 0.76031
14260 0.760342
14270 0.760374
14280 0.760406
14290 0.760438
14300 0.76047
14310 0.760502
14320 0.760534
14330 0.760566
14340 0.760598
14350 0.760631
14360 0.760663
14370 0.760695
14380 0.760728
14390 0.76076
14400 0.760793
14410 0.760825
14420 0.760858
14430 0.760891
14440 0.760923
14450 0.760956
14460 0.760989
14470 0.761022
14480 0.761054
14490 0.761087
14500 0.76112
14510 0.761153
14520 0.761186
14530 0.761219
14540 0.761252
14550 0.761285
14560 0.761318
14570 0.761352
14580 0.761385
14590 0.761418
14600 0.761451
14610 0.761485
14620 0.761518
14630 0.761552
14640 0.761585
14650 0.761619
14660 0.761652
14670 0.761686
14680 0.76172
14690 0.761754
14700 0.761788
14710 0.761822
14720 0.761856
14730 0.76189
14740 0.761924
14750 0.761958
14760 0.761992
14770 0.762026
14780 0.762061
14790 0.762095
14800 0.762129
14810 0.762164
14820 0.762198
14830 0.762233
14840 0.762267
14850 0.762302
14860 0.762337
14870 0.762371
14880 0.762406
14890 0.762441
14900 0.762475
14910 0.76251
14920 0.762545
14930 0.76258
14940 0.762614
14950 0.762649
14960 0.762684
14970 0.762719
14980 0.762754
14990 0.762789
15000 0.762824
15010 0.762859
15020 0.762894
15030 0.762929
15040 0.762965
15050 0.763
15060 0.763035
15070 0.763071
15080 0.763106
15090 0.763142
15100 0.763177
15110 0.763213
15120 0.763248
15130 0.763284
15140 0.76332
15150 0.763356
15160 0.763391
15170 0.763427
15180 0.763463
15190 0.763499
15200 0.763535
15210 0.763571
15220 0.763607
15230 0.763643
15240 0.763679
15250 0.763715
15260 0.763751
15270 0.763787
15280 0.763823
15290 0.76386
15300 0.763896
15310 0.763932
15320 0.763968
15330 0.764005
15340 0.764041
15350 0.764077
15360 0.764114
15370 0.76415
15380 0.764187
15390 0.764224
15400 0.76426
15410 0.764297
15420 0.764334
15430 0.76437
15440 0.764407
15450 0.764444
15460 0.764481
15470 0.764518
15480 0.764555
15490 0.764592
15500 0.764629
15510 0.764666
15520 0.764703
15530 0.76474
15540 0.764777
15550 0.764814
15560 0.764852
15570 0.764889
15580 0.764926
15590 0.764963
15600 0.765001
15610 0.765038
15620 0.765075
15630 0.765113
15640 0.76515
15650 0.765188
15660 0.765225
15670 0.765263
15680 0.7653
15690 0.765338
15700 0.765376
15710 0.765413
15720 0.765451
15730 0.765489
15740 0.765527
15750 0.765564
15760 0.765602
15770 0.76564
15780 0.765678
15790 0.765716
15800 0.765754
15810 0.765792
15820 0.76583
15830 0.765868
15840 0.765906
15850 0.765944
15860 0.765982
15870 0.76602
15880 0.766058
15890 0.766097
15900 0.766135
15910 0.766173
15920 0.766211
15930 0.766249
15940 0.766288
15950 0.766326
15960 0.766364
15970 0.766403
15980 0.766441
15990 0.76648
16000 0.766518
16010 0.766557
16020 0.766595
16030 0.766634
16040 0.766672
16050 0.766711
16060 0.76675
16070 0.766788
16080 0.766827
16090 0.766866
16100 0.766904
16110 0.766943
16120 0.766982
16130 0.76702
16140 0.767059
16150 0.767098
16160 0.767137
16170 0.767176
16180 0.767214
16190 0.767253
16200 0.767292
16210 0.767331
16220 0.76737
16230 0.767409
16240 0.767448
16250 0.767487
16260 0.767526
16270 0.767565
16280 0.767604
16290 0.767643
16300 0.767682
16310 0.767721
16320 0.76776
16330 0.767799
16340 0.767839
16350 0.767878
16360 0.767917
16370 0.767956
16380 0.767995
16390 0.768034
16400 0.768073
16410 0.768113
16420 0.768152
16430 0.768191
16440 0.76823
16450 0.768269
16460 0.768308
16470 0.768348
16480 0.768387
16490 0.768426
16500 0.768465
16510 0.768505
16520 0.768544
16530 0.768583
16540 0.768622
16550 0.768662
16560 0.768701
16570 0.76874
16580 0.768779
16590 0.768819
16600 0.768858
16610 0.768897
16620 0.768936
16630 0.768976
16640 0.769015
16650 0.769054
16660 0.769094
16670 0.769133
16680 0.769172
16690 0.769211
16700 0.769251
16710 0.76929
16720 0.769329
16730 0.769369
16740 0.769408
16750 0.769447
16760 0.769487
16770 0.769526
16780 0.769565
16790 0.769605
16800 0.769644
16810 0.769683
16820 0.769723
16830 0.769762
16840 0.769801
16850 0.76984
16860 0.76988
16870 0.769919
16880 0.769958
16890 0.769998
16900 0.770037
16910 0.770076
16920 0.770116
16930 0.770155
16940 0.770194
16950 0.770234
16960 0.770273
16970 0.770312
16980 0.770352
16990 0.770391
17000 0.77043
17010 0.770469
17020 0.770509
17030 0.770548
17040 0.770587
17050 0.770627
17060 0.770666
17070 0.770705
17080 0.770744
17090 0.770784
17100 0.770823
17110 0.770862
17120 0.770901
17130 0.770941
17140 0.77098
17150 0.771019
17160 0.771058
17170 0.771097
17180 0.771137
17190 0.771176
17200 0.771215
17210 0.771254
17220 0.771293
17230 0.771333
17240 0.771372
17250 0.771411
17260 0.77145
17270 0.771489
17280 0.771528
17290 0.771567
17300 0.771606
17310 0.771646
17320 0.771685
17330 0.771724
17340 0.771763
17350 0.771802
17360 0.771841
17370 0.77188
17380 0.771919
17390 0.771958
17400 0.771997
17410 0.772036
17420 0.772075
17430 0.772114
17440 0.772153
17450 0.772192
17460 0.772231
17470 0.77227
17480 0.772309
17490 0.772348
17500 0.772387
17510 0.772425
17520 0.772464
17530 0.772503
17540 0.772542
17550 0.772581
17560 0.77262
17570 0.772658
17580 0.772697
17590 0.772736
17600 0.772775
17610 0.772814
17620 0.772852
17630 0.772891
17640 0.77293
17650 0.772968
17660 0.773007
17670 0.773046
17680 0.773085
17690 0.773123
17700 0.773162
17710 0.7732
17720 0.773239
17730 0.773278
17740 0.773316
17750 0.773355
17760 0.773393
17770 0.773432
17780 0.77347
17790 0.773509
17800 0.773547
17810 0.773586
17820 0.773624
17830 0.773663
17840 0.773701
17850 0.773739
17860 0.773778
17870 0.773816
17880 0.773855
17890 0.773893
17900 0.773931
17910 0.77397
17920 0.774008
17930 0.774046
17940 0.774084
17950 0.774123
17960 0.774161
17970 0.774199
17980 0.774237
17990 0.774275
18000 0.774314
18010 0.774352
18020 0.77439
18030 0.774428
18040 0.774466
18050 0.774504
18060 0.774542
18070 0.77458
18080 0.774618
18090 0.774656
18100 0.774694
18110 0.774732
18120 0.77477
18130 0.774808
18140 0.774846
18150 0.774884
18160 0.774922
18170 0.77496
18180 0.774998
18190 0.775035
18200 0.775073
18210 0.775111
18220 0.775149
18230 0.775187
18240 0.775224
18250 0.775262
18260 0.7753
18270 0.775337
18280 0.775375
18290 0.775413
18300 0.77545
18310 0.775488
18320 0.775526
18330 0.775563
18340 0.775601
18350 0.775638
18360 0.775676
18370 0.775713
18380 0.775751
18390 0.775789
18400 0.775826
18410 0.775863
18420 0.775901
18430 0.775938
18440 0.775976
18450 0.776013
18460 0.776051
18470 0.776088
18480 0.776125
18490 0.776163
18500 0.7762
18510 0.776237
18520 0.776275
18530 0.776312
18540 0.776349
18550 0.776386
18560 0.776424
18570 0.776461
18580 0.776498
18590 0.776535
18600 0.776572
18610 0.776609
18620 0.776647
18630 0.776684
18640 0.776721
18650 0.776758
18660 0.776795
18670 0.776832
18680 0.776869
18690 0.776906
18700 0.776943
18710 0.77698
18720 0.777017
18730 0.777054
18740 0.777091
18750 0.777128
18760 0.777165
18770 0.777202
18780 0.777239
18790 0.777276
18800 0.777312
18810 0.777349
18820 0.777386
18830 0.777423
18840 0.777459
18850 0.777496
18860 0.777533
18870 0.77757
18880 0.777606
18890 0.777643
18900 0.77768
18910 0.777716
18920 0.777753
18930 0.777789
18940 0.777826
18950 0.777863
18960 0.777899
18970 0.777936
18980 0.777973
18990 0.778009
19000 0.778046
19010 0.778082
19020 0.778119
19030 0.778155
19040 0.778192
19050 0.778228
19060 0.778265
19070 0.778302
19080 0.778338
19090 0.778375
19100 0.778411
19110 0.778448
19120 0.778484
19130 0.778521
19140 0.778557
19150 0.778594
19160 0.77863
19170 0.778667
19180 0.778703
19190 0.77874
19200 0.778776
19210 0.778813
19220 0.778849
19230 0.778885
19240 0.778922
19250 0.778958
19260 0.778995
19270 0.779031
19280 0.779068
19290 0.779104
19300 0.779141
19310 0.779177
19320 0.779213
19330 0.77925
19340 0.779286
19350 0.779323
19360 0.779359
19370 0.779396
19380 0.779432
19390 0.779468
19400 0.779505
19410 0.779541
19420 0.779578
19430 0.779614
19440 0.779651
19450 0.779687
19460 0.779723
19470 0.77976
19480 0.779796
19490 0.779833
19500 0.779869
19510 0.779905
19520 0.779942
19530 0.779978
19540 0.780015
19550 0.780051
19560 0.780087
19570 0.780124
19580 0.78016
19590 0.780197
19600 0.780233
19610 0.780269
19620 0.780306
19630 0.780342
19640 0.780379
19650 0.780415
19660 0.780452
19670 0.780488
19680 0.780524
19690 0.780561
19700 0.780597
19710 0.780634
19720 0.78067
19730 0.780707
19740 0.780743
19750 0.78078
19760 0.780816
19770 0.780852
19780 0.780889
19790 0.780925
19800 0.780962
19810 0.780998
19820 0.781035
19830 0.781071
19840 0.781108
19850 0.781144
19860 0.781181
19870 0.781217
19880 0.781254
19890 0.781291
19900 0.781327
19910 0.781364
19920 0.7814
19930 0.781437
19940 0.781473
19950 0.78151
19960 0.781546
19970 0.781583
19980 0.78162
19990 0.781656
20000 0.781693
20010 0.78173
20020 0.781766
20030 0.781803
20040 0.78184
20050 0.781876
20060 0.781913
20070 0.78195
20080 0.781986
20090 0.782023
20100 0.78206
20110 0.782096
20120 0.782133
20130 0.78217
20140 0.782207
20150 0.782244
20160 0.78228
20170 0.782317
20180 0.782354
20190 0.782391
20200 0.782428
20210 0.782464
20220 0.782501
20230 0.782538
20240 0.782575
20250 0.782612
20260 0.782649
20270 0.782686
20280 0.782723
20290 0.78276
20300 0.782797
20310 0.782834
20320 0.782871
20330 0.782908
20340 0.782945
20350 0.782982
20360 0.783019
20370 0.783056
20380 0.783093
20390 0.78313
20400 0.783168
20410 0.783205
20420 0.783242
20430 0.783279
20440 0.783316
20450 0.783354
20460 0.783391
20470 0.783428
20480 0.783465
20490 0.783503
20500 0.78354
20510 0.783577
20520 0.783615
20530 0.783652
20540 0.783689
20550 0.783727
20560 0.783764
20570 0.783802
20580 0.783839
20590 0.783877
20600 0.783914
20610 0.783952
20620 0.783989
20630 0.784027
20640 0.784064
20650 0.784102
20660 0.78414
20670 0.784177
20680 0.784215
20690 0.784252
20700 0.78429
20710 0.784328
20720 0.784365
20730 0.784403
20740 0.784441
20750 0.784479
20760 0.784516
20770 0.784554
20780 0.784592
20790 0.78463
20800 0.784668
20810 0.784706
20820 0.784744
20830 0.784782
20840 0.78482
20850 0.784858
20860 0.784896
20870 0.784934
20880 0.784972
20890 0.78501
20900 0.785048
20910 0.785086