3600 0.157722
7200 0.195954
10800 0.175371
14400 0.171657
18000 0.17517
21600 0.184665
25200 0.196825
28800 0.208286
32400 0.217869
