       0.5 0.00644858
       1.5 0.00217294
       2.5 0.00131781
       3.5 0.000951325
       4.5 0.000747723
       5.5 0.000618158
       6.5 0.000528459
       7.5 0.00046268
       8.5 0.000412378
       9.5 0.000372666
      10.5 0.000340519
      11.5 0.000313962
      12.5 0.000291654
      13.5 0.000272651
      14.5 0.00025627
      15.5 0.000242002
      16.5 0.000229463
      17.5 0.000218358
      18.5 0.000208453
      19.5 0.000199563
      20.5 0.000191542
      21.5 0.000184266
      22.5 0.000177637
      23.5 0.000171572
      24.5 0.000166003
      25.5 0.00016087
      26.5 0.000156124
      27.5 0.000151724
      28.5 0.000147633
      29.5 0.000143818
      30.5 0.000140254
      31.5 0.000136917
      32.5 0.000133784
      33.5 0.000130839
      34.5 0.000128064
      35.5 0.000125446
      36.5 0.000122971
      37.5 0.000120629
      38.5 0.000118407
      39.5 0.000116299
      40.5 0.000114294
      41.5 0.000112386
      42.5 0.000110568
      43.5 0.000108834
      44.5 0.000107177
      45.5 0.000105593
      46.5 0.000104078
      47.5 0.000102626
      48.5 0.000101234
      49.5 9.98981e-05
      50.5 9.86153e-05
      51.5 9.73823e-05
      52.5 9.61963e-05
      53.5 9.50546e-05
      54.5 9.39548e-05
      55.5 9.28946e-05
      56.5 9.1872e-05
      57.5 9.08849e-05
      58.5 8.99316e-05
      59.5 8.90103e-05
      60.5 8.81195e-05
      61.5 8.72577e-05
      62.5 8.64234e-05
      63.5 8.56154e-05
      64.5 8.48324e-05
      65.5 8.40734e-05
      66.5 8.33372e-05
      67.5 8.26228e-05
      68.5 8.19293e-05
      69.5 8.12557e-05
      70.5 8.06012e-05
      71.5 7.99651e-05
      72.5 7.93465e-05
      73.5 7.87447e-05
      74.5 7.81591e-05
      75.5 7.75889e-05
      76.5 7.70337e-05
      77.5 7.64929e-05
      78.5 7.59658e-05
      79.5 7.54519e-05
      80.5 7.49508e-05
      81.5 7.44621e-05
      82.5 7.39851e-05
      83.5 7.35196e-05
      84.5 7.30652e-05
      85.5 7.26213e-05
      86.5 7.21877e-05
      87.5 7.1764e-05
      88.5 7.13499e-05
      89.5 7.09451e-05
      90.5 7.05492e-05
      91.5 7.01619e-05
      92.5 6.9783e-05
      93.5 6.94123e-05
      94.5 6.90493e-05
      95.5 6.8694e-05
      96.5 6.83461e-05
      97.5 6.80052e-05
      98.5 6.76713e-05
      99.5 6.73441e-05
     100.5 6.6959e-05
     101.5 6.65169e-05
     102.5 6.60824e-05
     103.5 6.56552e-05
     104.5 6.52351e-05
     105.5 6.4822e-05
     106.5 6.44156e-05
     107.5 6.40157e-05
     108.5 6.36223e-05
     109.5 6.3235e-05
     110.5 6.28538e-05
     111.5 6.24785e-05
     112.5 6.21089e-05
     113.5 6.17448e-05
     114.5 6.13862e-05
     115.5 6.10329e-05
     116.5 6.06848e-05
     117.5 6.03417e-05
     118.5 6.00035e-05
     119.5 5.96701e-05
     120.5 5.93414e-05
     121.5 5.90172e-05
     122.5 5.86975e-05
     123.5 5.83822e-05
     124.5 5.8071e-05
     125.5 5.77641e-05
     126.5 5.74611e-05
     127.5 5.71621e-05
     128.5 5.6867e-05
     129.5 5.65757e-05
     130.5 5.62881e-05
     131.5 5.6004e-05
     132.5 5.57236e-05
     133.5 5.54465e-05
     134.5 5.51729e-05
     135.5 5.49025e-05
     136.5 5.46354e-05
     137.5 5.43715e-05
     138.5 5.41107e-05
     139.5 5.38529e-05
     140.5 5.35981e-05
     141.5 5.33462e-05
     142.5 5.30971e-05
     143.5 5.28509e-05
     144.5 5.26074e-05
     145.5 5.23665e-05
     146.5 5.21284e-05
     147.5 5.18928e-05
     148.5 5.16597e-05
     149.5 5.14291e-05
     150.5 5.1201e-05
     151.5 5.09752e-05
     152.5 5.07518e-05
     153.5 5.05307e-05
     154.5 5.03119e-05
     155.5 5.00953e-05
     156.5 4.98808e-05
     157.5 4.96685e-05
     158.5 4.94583e-05
     159.5 4.92502e-05
     160.5 4.9044e-05
     161.5 4.88399e-05
     162.5 4.86377e-05
     163.5 4.84374e-05
     164.5 4.82391e-05
     165.5 4.80425e-05
     166.5 4.78478e-05
     167.5 4.76549e-05
     168.5 4.74638e-05
     169.5 4.72743e-05
     170.5 4.70866e-05
     171.5 4.69006e-05
     172.5 4.67162e-05
     173.5 4.65334e-05
     174.5 4.63522e-05
     175.5 4.61726e-05
     176.5 4.59946e-05
     177.5 4.5818e-05
     178.5 4.56429e-05
     179.5 4.54694e-05
     180.5 4.52972e-05
     181.5 4.51265e-05
     182.5 4.49572e-05
     183.5 4.47893e-05
     184.5 4.46227e-05
     185.5 4.44575e-05
     186.5 4.42936e-05
     187.5 4.4131e-05
     188.5 4.39697e-05
     189.5 4.38096e-05
     190.5 4.36508e-05
     191.5 4.34932e-05
     192.5 4.33369e-05
     193.5 4.31817e-05
     194.5 4.30277e-05
     195.5 4.28748e-05
     196.5 4.27231e-05
     197.5 4.25725e-05
     198.5 4.24231e-05
     199.5 4.22747e-05
     200.5 4.21274e-05
     201.5 4.19812e-05
     202.5 4.1836e-05
     203.5 4.16918e-05
     204.5 4.15487e-05
     205.5 4.14066e-05
     206.5 4.12654e-05
     207.5 4.11253e-05
     208.5 4.09861e-05
     209.5 4.08479e-05
     210.5 4.07106e-05
     211.5 4.05743e-05
     212.5 4.04389e-05
     213.5 4.03044e-05
     214.5 4.01708e-05
     215.5 4.0038e-05
     216.5 3.99062e-05
     217.5 3.97752e-05
     218.5 3.9645e-05
     219.5 3.95157e-05
     220.5 3.93873e-05
     221.5 3.92596e-05
     222.5 3.91328e-05
     223.5 3.90067e-05
     224.5 3.88815e-05
     225.5 3.8757e-05
     226.5 3.86333e-05
     227.5 3.85104e-05
     228.5 3.83882e-05
     229.5 3.82668e-05
     230.5 3.81461e-05
     231.5 3.80262e-05
     232.5 3.7907e-05
     233.5 3.77884e-05
     234.5 3.76706e-05
     235.5 3.75535e-05
     236.5 3.74371e-05
     237.5 3.73213e-05
     238.5 3.72062e-05
     239.5 3.70918e-05
     240.5 3.69781e-05
     241.5 3.6865e-05
     242.5 3.67525e-05
     243.5 3.66407e-05
     244.5 3.65295e-05
     245.5 3.64189e-05
     246.5 3.6309e-05
     247.5 3.61996e-05
     248.5 3.60909e-05
     249.5 3.59828e-05
     250.5 3.58752e-05
     251.5 3.57683e-05
     252.5 3.56619e-05
     253.5 3.55561e-05
     254.5 3.54508e-05
     255.5 3.53462e-05
     256.5 3.5242e-05
     257.5 3.51385e-05
     258.5 3.50354e-05
     259.5 3.4933e-05
     260.5 3.4831e-05
     261.5 3.47296e-05
     262.5 3.46287e-05
     263.5 3.45283e-05
     264.5 3.44284e-05
     265.5 3.43291e-05
     266.5 3.42302e-05
     267.5 3.41318e-05
     268.5 3.4034e-05
     269.5 3.39366e-05
     270.5 3.38397e-05
     271.5 3.37433e-05
     272.5 3.36474e-05
     273.5 3.35519e-05
     274.5 3.34569e-05
     275.5 3.33624e-05
     276.5 3.32683e-05
     277.5 3.31747e-05
     278.5 3.30815e-05
     279.5 3.29888e-05
     280.5 3.28965e-05
     281.5 3.28046e-05
     282.5 3.27132e-05
     283.5 3.26222e-05
     284.5 3.25317e-05
     285.5 3.24415e-05
     286.5 3.23518e-05
     287.5 3.22625e-05
     288.5 3.21736e-05
     289.5 3.20852e-05
     290.5 3.19971e-05
     291.5 3.19094e-05
     292.5 3.18221e-05
     293.5 3.17352e-05
     294.5 3.16487e-05
     295.5 3.15626e-05
     296.5 3.14769e-05
     297.5 3.13916e-05
     298.5 3.13066e-05
     299.5 3.1222e-05
     300.5 3.11378e-05
     301.5 3.1054e-05
     302.5 3.09705e-05
     303.5 3.08874e-05
     304.5 3.08046e-05
     305.5 3.07222e-05
     306.5 3.06402e-05
     307.5 3.05585e-05
     308.5 3.04771e-05
     309.5 3.03961e-05
     310.5 3.03155e-05
     311.5 3.02351e-05
     312.5 3.01552e-05
     313.5 3.00755e-05
     314.5 2.99962e-05
     315.5 2.99172e-05
     316.5 2.98386e-05
     317.5 2.97602e-05
     318.5 2.96822e-05
     319.5 2.96045e-05
     320.5 2.95272e-05
     321.5 2.94501e-05
     322.5 2.93734e-05
     323.5 2.92969e-05
     324.5 2.92208e-05
     325.5 2.9145e-05
     326.5 2.90695e-05
     327.5 2.89943e-05
     328.5 2.89194e-05
     329.5 2.88447e-05
     330.5 2.87704e-05
     331.5 2.86964e-05
     332.5 2.86227e-05
     333.5 2.85492e-05
     334.5 2.84761e-05
     335.5 2.84032e-05
     336.5 2.83306e-05
     337.5 2.82583e-05
     338.5 2.81862e-05
     339.5 2.81145e-05
     340.5 2.8043e-05
     341.5 2.79718e-05
     342.5 2.79009e-05
     343.5 2.78302e-05
     344.5 2.77598e-05
     345.5 2.76896e-05
     346.5 2.76198e-05
     347.5 2.75502e-05
     348.5 2.74808e-05
     349.5 2.74117e-05
     350.5 2.73429e-05
     351.5 2.72743e-05
     352.5 2.7206e-05
     353.5 2.71379e-05
     354.5 2.70701e-05
     355.5 2.70025e-05
     356.5 2.69352e-05
     357.5 2.68681e-05
     358.5 2.68013e-05
     359.5 2.67347e-05
     360.5 2.66683e-05
     361.5 2.66022e-05
     362.5 2.65363e-05
     363.5 2.64707e-05
     364.5 2.64053e-05
     365.5 2.63401e-05
     366.5 2.62751e-05
     367.5 2.62104e-05
     368.5 2.61459e-05
     369.5 2.60817e-05
     370.5 2.60176e-05
     371.5 2.59538e-05
     372.5 2.58903e-05
     373.5 2.58269e-05
     374.5 2.57637e-05
     375.5 2.57008e-05
     376.5 2.56381e-05
     377.5 2.55756e-05
     378.5 2.55134e-05
     379.5 2.54513e-05
     380.5 2.53895e-05
     381.5 2.53278e-05
     382.5 2.52664e-05
     383.5 2.52052e-05
     384.5 2.51442e-05
     385.5 2.50834e-05
     386.5 2.50228e-05
     387.5 2.49624e-05
     388.5 2.49022e-05
     389.5 2.48422e-05
     390.5 2.47824e-05
     391.5 2.47228e-05
     392.5 2.46634e-05
     393.5 2.46042e-05
     394.5 2.45453e-05
     395.5 2.44865e-05
     396.5 2.44278e-05
     397.5 2.43694e-05
     398.5 2.43112e-05
     399.5 2.42532e-05
     400.5 2.41953e-05
     401.5 2.41377e-05
     402.5 2.40802e-05
     403.5 2.40229e-05
     404.5 2.39658e-05
     405.5 2.39089e-05
     406.5 2.38522e-05
     407.5 2.37957e-05
     408.5 2.37393e-05
     409.5 2.36831e-05
     410.5 2.36271e-05
     411.5 2.35713e-05
     412.5 2.35157e-05
     413.5 2.34602e-05
     414.5 2.34049e-05
     415.5 2.33498e-05
     416.5 2.32949e-05
     417.5 2.32401e-05
     418.5 2.31855e-05
     419.5 2.31311e-05
     420.5 2.30768e-05
     421.5 2.30227e-05
     422.5 2.29688e-05
     423.5 2.29151e-05
     424.5 2.28615e-05
     425.5 2.28081e-05
     426.5 2.27548e-05
     427.5 2.27017e-05
     428.5 2.26488e-05
     429.5 2.2596e-05
     430.5 2.25434e-05
     431.5 2.2491e-05
     432.5 2.24387e-05
     433.5 2.23866e-05
     434.5 2.23347e-05
     435.5 2.22829e-05
     436.5 2.22312e-05
     437.5 2.21797e-05
     438.5 2.21284e-05
     439.5 2.20772e-05
     440.5 2.20262e-05
     441.5 2.19753e-05
     442.5 2.19246e-05
     443.5 2.18741e-05
     444.5 2.18236e-05
     445.5 2.17734e-05
     446.5 2.17233e-05
     447.5 2.16733e-05
     448.5 2.16235e-05
     449.5 2.15738e-05
     450.5 2.15243e-05
     451.5 2.14749e-05
     452.5 2.14257e-05
     453.5 2.13766e-05
     454.5 2.13277e-05
     455.5 2.12789e-05
     456.5 2.12302e-05
     457.5 2.11817e-05
     458.5 2.11334e-05
     459.5 2.10851e-05
     460.5 2.10371e-05
     461.5 2.09891e-05
     462.5 2.09413e-05
     463.5 2.08936e-05
     464.5 2.08461e-05
     465.5 2.07987e-05
     466.5 2.07515e-05
     467.5 2.07043e-05
     468.5 2.06573e-05
     469.5 2.06105e-05
     470.5 2.05638e-05
     471.5 2.05172e-05
     472.5 2.04707e-05
     473.5 2.04244e-05
     474.5 2.03782e-05
     475.5 2.03322e-05
     476.5 2.02863e-05
     477.5 2.02405e-05
     478.5 2.01948e-05
     479.5 2.01493e-05
     480.5 2.01039e-05
     481.5 2.00586e-05
     482.5 2.00134e-05
     483.5 1.99684e-05
     484.5 1.99235e-05
     485.5 1.98787e-05
     486.5 1.98341e-05
     487.5 1.97896e-05
     488.5 1.97452e-05
     489.5 1.97009e-05
     490.5 1.96567e-05
     491.5 1.96127e-05
     492.5 1.95688e-05
     493.5 1.9525e-05
     494.5 1.94813e-05
     495.5 1.94378e-05
     496.5 1.93944e-05
     497.5 1.93511e-05
     498.5 1.93079e-05
     499.5 1.92648e-05
     500.5 1.92219e-05
     501.5 1.9179e-05
     502.5 1.91363e-05
     503.5 1.90937e-05
     504.5 1.90512e-05
     505.5 1.90089e-05
     506.5 1.89666e-05
     507.5 1.89245e-05
     508.5 1.88825e-05
     509.5 1.88405e-05
     510.5 1.87988e-05
     511.5 1.87571e-05
     512.5 1.87155e-05
     513.5 1.8674e-05
     514.5 1.86327e-05
     515.5 1.85915e-05
     516.5 1.85503e-05
     517.5 1.85093e-05
     518.5 1.84684e-05
     519.5 1.84276e-05
     520.5 1.83869e-05
     521.5 1.83464e-05
     522.5 1.83059e-05
     523.5 1.82655e-05
     524.5 1.82253e-05
     525.5 1.81851e-05
     526.5 1.81451e-05
     527.5 1.81051e-05
     528.5 1.80653e-05
     529.5 1.80256e-05
     530.5 1.7986e-05
     531.5 1.79465e-05
     532.5 1.7907e-05
     533.5 1.78677e-05
     534.5 1.78285e-05
     535.5 1.77894e-05
     536.5 1.77504e-05
     537.5 1.77115e-05
     538.5 1.76727e-05
     539.5 1.7634e-05
     540.5 1.75955e-05
     541.5 1.7557e-05
     542.5 1.75186e-05
     543.5 1.74803e-05
     544.5 1.74421e-05
     545.5 1.7404e-05
     546.5 1.7366e-05
     547.5 1.73281e-05
     548.5 1.72903e-05
     549.5 1.72526e-05
     550.5 1.7215e-05
     551.5 1.71775e-05
     552.5 1.71401e-05
     553.5 1.71028e-05
     554.5 1.70655e-05
     555.5 1.70284e-05
     556.5 1.69914e-05
     557.5 1.69545e-05
     558.5 1.69176e-05
     559.5 1.68809e-05
     560.5 1.68442e-05
     561.5 1.68077e-05
     562.5 1.67712e-05
     563.5 1.67348e-05
     564.5 1.66986e-05
     565.5 1.66624e-05
     566.5 1.66263e-05
     567.5 1.65903e-05
     568.5 1.65544e-05
     569.5 1.65186e-05
     570.5 1.64828e-05
     571.5 1.64472e-05
     572.5 1.64116e-05
     573.5 1.63762e-05
     574.5 1.63408e-05
     575.5 1.63055e-05
     576.5 1.62703e-05
     577.5 1.62352e-05
     578.5 1.62002e-05
     579.5 1.61653e-05
     580.5 1.61304e-05
     581.5 1.60957e-05
     582.5 1.6061e-05
     583.5 1.60264e-05
     584.5 1.59919e-05
     585.5 1.59575e-05
     586.5 1.59232e-05
     587.5 1.5889e-05
     588.5 1.58548e-05
     589.5 1.58208e-05
     590.5 1.57868e-05
     591.5 1.57529e-05
     592.5 1.57191e-05
     593.5 1.56853e-05
     594.5 1.56517e-05
     595.5 1.56181e-05
     596.5 1.55846e-05
     597.5 1.55512e-05
     598.5 1.55179e-05
     599.5 1.54847e-05
     600.5 1.54515e-05
     601.5 1.54185e-05
     602.5 1.53855e-05
     603.5 1.53526e-05
     604.5 1.53198e-05
     605.5 1.5287e-05
     606.5 1.52543e-05
     607.5 1.52218e-05
     608.5 1.51892e-05
     609.5 1.51568e-05
     610.5 1.51245e-05
     611.5 1.50922e-05
     612.5  1.506e-05
     613.5 1.50279e-05
     614.5 1.49959e-05
     615.5 1.49639e-05
     616.5 1.4932e-05
     617.5 1.49002e-05
     618.5 1.48685e-05
     619.5 1.48369e-05
     620.5 1.48053e-05
     621.5 1.47738e-05
     622.5 1.47424e-05
     623.5 1.4711e-05
     624.5 1.46798e-05
     625.5 1.46486e-05
     626.5 1.46175e-05
     627.5 1.45864e-05
     628.5 1.45554e-05
     629.5 1.45246e-05
     630.5 1.44937e-05
     631.5 1.4463e-05
     632.5 1.44323e-05
     633.5 1.44017e-05
     634.5 1.43712e-05
     635.5 1.43408e-05
     636.5 1.43104e-05
     637.5 1.42801e-05
     638.5 1.42498e-05
     639.5 1.42197e-05
     640.5 1.41896e-05
     641.5 1.41596e-05
     642.5 1.41296e-05
     643.5 1.40998e-05
     644.5  1.407e-05
     645.5 1.40402e-05
     646.5 1.40106e-05
     647.5 1.3981e-05
     648.5 1.39514e-05
     649.5 1.3922e-05
     650.5 1.38926e-05
     651.5 1.38633e-05
     652.5 1.38341e-05
     653.5 1.38049e-05
     654.5 1.37758e-05
     655.5 1.37468e-05
     656.5 1.37178e-05
     657.5 1.36889e-05
     658.5 1.36601e-05
     659.5 1.36313e-05
     660.5 1.36026e-05
     661.5 1.3574e-05
     662.5 1.35454e-05
     663.5 1.35169e-05
     664.5 1.34885e-05
     665.5 1.34601e-05
     666.5 1.34319e-05
     667.5 1.34036e-05
     668.5 1.33755e-05
     669.5 1.33474e-05
     670.5 1.33193e-05
     671.5 1.32914e-05
     672.5 1.32635e-05
     673.5 1.32357e-05
     674.5 1.32079e-05
     675.5 1.31802e-05
     676.5 1.31525e-05
     677.5 1.3125e-05
     678.5 1.30975e-05
     679.5  1.307e-05
     680.5 1.30426e-05
     681.5 1.30153e-05
     682.5 1.29881e-05
     683.5 1.29609e-05
     684.5 1.29337e-05
     685.5 1.29067e-05
     686.5 1.28797e-05
     687.5 1.28527e-05
     688.5 1.28259e-05
     689.5 1.2799e-05
     690.5 1.27723e-05
     691.5 1.27456e-05
     692.5 1.2719e-05
     693.5 1.26924e-05
     694.5 1.26659e-05
     695.5 1.26394e-05
     696.5 1.26131e-05
     697.5 1.25867e-05
     698.5 1.25605e-05
     699.5 1.25343e-05
     700.5 1.25081e-05
     701.5 1.2482e-05
     702.5 1.2456e-05
     703.5 1.24301e-05
     704.5 1.24041e-05
     705.5 1.23783e-05
     706.5 1.23525e-05
     707.5 1.23268e-05
     708.5 1.23011e-05
     709.5 1.22755e-05
     710.5  1.225e-05
     711.5 1.22245e-05
     712.5 1.2199e-05
     713.5 1.21737e-05
     714.5 1.21483e-05
     715.5 1.21231e-05
     716.5 1.20979e-05
     717.5 1.20727e-05
     718.5 1.20476e-05
     719.5 1.20226e-05
     720.5 1.19976e-05
     721.5 1.19727e-05
     722.5 1.19479e-05
     723.5 1.19231e-05
     724.5 1.18983e-05
     725.5 1.18736e-05
     726.5 1.1849e-05
     727.5 1.18244e-05
     728.5 1.17999e-05
     729.5 1.17754e-05
     730.5 1.1751e-05
     731.5 1.17266e-05
     732.5 1.17023e-05
     733.5 1.16781e-05
     734.5 1.16539e-05
     735.5 1.16298e-05
     736.5 1.16057e-05
     737.5 1.15816e-05
     738.5 1.15577e-05
     739.5 1.15337e-05
     740.5 1.15099e-05
     741.5 1.14861e-05
     742.5 1.14623e-05
     743.5 1.14386e-05
     744.5 1.14149e-05
     745.5 1.13913e-05
     746.5 1.13678e-05
     747.5 1.13443e-05
     748.5 1.13209e-05
     749.5 1.12975e-05
     750.5 1.12741e-05
     751.5 1.12509e-05
     752.5 1.12276e-05
     753.5 1.12044e-05
     754.5 1.11813e-05
     755.5 1.11582e-05
     756.5 1.11352e-05
     757.5 1.11122e-05
     758.5 1.10893e-05
     759.5 1.10664e-05
     760.5 1.10436e-05
     761.5 1.10209e-05
     762.5 1.09981e-05
     763.5 1.09755e-05
     764.5 1.09529e-05
     765.5 1.09303e-05
     766.5 1.09078e-05
     767.5 1.08853e-05
     768.5 1.08629e-05
     769.5 1.08405e-05
     770.5 1.08182e-05
     771.5 1.07959e-05
     772.5 1.07737e-05
     773.5 1.07515e-05
     774.5 1.07294e-05
     775.5 1.07074e-05
     776.5 1.06853e-05
     777.5 1.06634e-05
     778.5 1.06414e-05
     779.5 1.06196e-05
     780.5 1.05977e-05
     781.5 1.0576e-05
     782.5 1.05542e-05
     783.5 1.05325e-05
     784.5 1.05109e-05
     785.5 1.04893e-05
     786.5 1.04678e-05
     787.5 1.04463e-05
     788.5 1.04249e-05
     789.5 1.04035e-05
     790.5 1.03821e-05
     791.5 1.03608e-05
     792.5 1.03396e-05
     793.5 1.03183e-05
     794.5 1.02972e-05
     795.5 1.02761e-05
     796.5 1.0255e-05
     797.5 1.0234e-05
     798.5 1.0213e-05
     799.5 1.01921e-05
     800.5 1.01712e-05
     801.5 1.01503e-05
     802.5 1.01296e-05
     803.5 1.01088e-05
     804.5 1.00881e-05
     805.5 1.00675e-05
     806.5 1.00468e-05
     807.5 1.00263e-05
     808.5 1.00058e-05
     809.5 9.98528e-06
     810.5 9.96485e-06
     811.5 9.94446e-06
     812.5 9.92412e-06
     813.5 9.90382e-06
     814.5 9.88357e-06
     815.5 9.86336e-06
     816.5 9.8432e-06
     817.5 9.82308e-06
     818.5  9.803e-06
     819.5 9.78297e-06
     820.5 9.76298e-06
     821.5 9.74304e-06
     822.5 9.72314e-06
     823.5 9.70328e-06
     824.5 9.68347e-06
     825.5 9.66369e-06
     826.5 9.64396e-06
     827.5 9.62428e-06
     828.5 9.60464e-06
     829.5 9.58504e-06
     830.5 9.56548e-06
     831.5 9.54596e-06
     832.5 9.52649e-06
     833.5 9.50706e-06
     834.5 9.48767e-06
     835.5 9.46833e-06
     836.5 9.44902e-06
     837.5 9.42976e-06
     838.5 9.41054e-06
     839.5 9.39136e-06
     840.5 9.37223e-06
     841.5 9.35313e-06
     842.5 9.33408e-06
     843.5 9.31506e-06
     844.5 9.29609e-06
     845.5 9.27716e-06
     846.5 9.25827e-06
     847.5 9.23942e-06
     848.5 9.22061e-06
     849.5 9.20185e-06
     850.5 9.18312e-06
     851.5 9.16443e-06
     852.5 9.14579e-06
     853.5 9.12718e-06
     854.5 9.10861e-06
     855.5 9.09009e-06
     856.5 9.0716e-06
     857.5 9.05316e-06
     858.5 9.03475e-06
     859.5 9.01638e-06
     860.5 8.99806e-06
     861.5 8.97977e-06
     862.5 8.96152e-06
     863.5 8.94331e-06
     864.5 8.92514e-06
     865.5 8.90701e-06
     866.5 8.88892e-06
     867.5 8.87087e-06
     868.5 8.85285e-06
     869.5 8.83488e-06
     870.5 8.81694e-06
     871.5 8.79904e-06
     872.5 8.78118e-06
     873.5 8.76336e-06
     874.5 8.74558e-06
     875.5 8.72784e-06
     876.5 8.71013e-06
     877.5 8.69246e-06
     878.5 8.67483e-06
     879.5 8.65724e-06
     880.5 8.63968e-06
     881.5 8.62216e-06
     882.5 8.60468e-06
     883.5 8.58724e-06
     884.5 8.56983e-06
     885.5 8.55246e-06
     886.5 8.53513e-06
     887.5 8.51784e-06
     888.5 8.50058e-06
     889.5 8.48336e-06
     890.5 8.46618e-06
     891.5 8.44903e-06
     892.5 8.43192e-06
     893.5 8.41485e-06
     894.5 8.39781e-06
     895.5 8.38081e-06
     896.5 8.36384e-06
     897.5 8.34691e-06
     898.5 8.33002e-06
     899.5 8.31316e-06
     900.5 8.29634e-06
     901.5 8.27956e-06
     902.5 8.26281e-06
     903.5 8.2461e-06
     904.5 8.22942e-06
     905.5 8.21278e-06
     906.5 8.19617e-06
     907.5 8.1796e-06
     908.5 8.16306e-06
     909.5 8.14656e-06
     910.5 8.13009e-06
     911.5 8.11366e-06
     912.5 8.09726e-06
     913.5 8.0809e-06
     914.5 8.06458e-06
     915.5 8.04828e-06
     916.5 8.03203e-06
     917.5 8.0158e-06
     918.5 7.99962e-06
     919.5 7.98346e-06
     920.5 7.96734e-06
     921.5 7.95125e-06
     922.5 7.9352e-06
     923.5 7.91919e-06
     924.5 7.9032e-06
     925.5 7.88725e-06
     926.5 7.87133e-06
     927.5 7.85545e-06
     928.5 7.8396e-06
     929.5 7.82379e-06
     930.5 7.80801e-06
     931.5 7.79226e-06
     932.5 7.77654e-06
     933.5 7.76086e-06
     934.5 7.74521e-06
     935.5 7.72959e-06
     936.5 7.71401e-06
     937.5 7.69846e-06
     938.5 7.68294e-06
     939.5 7.66746e-06
     940.5 7.65201e-06
     941.5 7.63659e-06
     942.5 7.6212e-06
     943.5 7.60585e-06
     944.5 7.59053e-06
     945.5 7.57524e-06
     946.5 7.55998e-06
     947.5 7.54475e-06
     948.5 7.52956e-06
     949.5 7.5144e-06
     950.5 7.49927e-06
     951.5 7.48417e-06
     952.5 7.46911e-06
     953.5 7.45407e-06
     954.5 7.43907e-06
     955.5 7.4241e-06
     956.5 7.40916e-06
     957.5 7.39425e-06
     958.5 7.37938e-06
     959.5 7.36453e-06
     960.5 7.34972e-06
     961.5 7.33494e-06
     962.5 7.32018e-06
     963.5 7.30546e-06
     964.5 7.29077e-06
     965.5 7.27611e-06
     966.5 7.26149e-06
     967.5 7.24689e-06
     968.5 7.23232e-06
     969.5 7.21778e-06
     970.5 7.20328e-06
     971.5 7.1888e-06
     972.5 7.17436e-06
     973.5 7.15994e-06
     974.5 7.14556e-06
     975.5 7.1312e-06
     976.5 7.11688e-06
     977.5 7.10258e-06
     978.5 7.08832e-06
     979.5 7.07408e-06
     980.5 7.05988e-06
     981.5 7.0457e-06
     982.5 7.03156e-06
     983.5 7.01744e-06
     984.5 7.00336e-06
     985.5 6.9893e-06
     986.5 6.97527e-06
     987.5 6.96127e-06
     988.5 6.9473e-06
     989.5 6.93336e-06
     990.5 6.91945e-06
     991.5 6.90557e-06
     992.5 6.89172e-06
     993.5 6.87789e-06
     994.5 6.8641e-06
     995.5 6.85033e-06
     996.5 6.8366e-06
     997.5 6.82289e-06
     998.5 6.80921e-06
     999.5 6.79555e-06
    1000.5 6.78193e-06
    1001.5 6.76834e-06
    1002.5 6.75477e-06
    1003.5 6.74123e-06
    1004.5 6.72772e-06
    1005.5 6.71424e-06
    1006.5 6.70079e-06
    1007.5 6.68736e-06
    1008.5 6.67396e-06
    1009.5 6.66059e-06
    1010.5 6.64725e-06
    1011.5 6.63393e-06
    1012.5 6.62065e-06
    1013.5 6.60739e-06
    1014.5 6.59416e-06
    1015.5 6.58095e-06
    1016.5 6.56778e-06
    1017.5 6.55463e-06
    1018.5 6.5415e-06
    1019.5 6.52841e-06
    1020.5 6.51534e-06
    1021.5 6.5023e-06
    1022.5 6.48929e-06
    1023.5 6.4763e-06
    1024.5 6.46334e-06
    1025.5 6.45041e-06
    1026.5 6.43751e-06
    1027.5 6.42463e-06
    1028.5 6.41177e-06
    1029.5 6.39895e-06
    1030.5 6.38615e-06
    1031.5 6.37338e-06
    1032.5 6.36063e-06
    1033.5 6.34791e-06
    1034.5 6.33522e-06
    1035.5 6.32255e-06
    1036.5 6.30991e-06
    1037.5 6.2973e-06
    1038.5 6.28471e-06
    1039.5 6.27215e-06
    1040.5 6.25961e-06
    1041.5 6.2471e-06
    1042.5 6.23462e-06
    1043.5 6.22216e-06
    1044.5 6.20973e-06
    1045.5 6.19732e-06
    1046.5 6.18494e-06
    1047.5 6.17258e-06
    1048.5 6.16025e-06
    1049.5 6.14795e-06
    1050.5 6.13567e-06
    1051.5 6.12342e-06
    1052.5 6.11119e-06
    1053.5 6.09898e-06
    1054.5 6.08681e-06
    1055.5 6.07465e-06
    1056.5 6.06253e-06
    1057.5 6.05042e-06
    1058.5 6.03834e-06
    1059.5 6.02629e-06
    1060.5 6.01426e-06
    1061.5 6.00226e-06
    1062.5 5.99028e-06
    1063.5 5.97833e-06
    1064.5 5.9664e-06
    1065.5 5.9545e-06
    1066.5 5.94262e-06
    1067.5 5.93076e-06
    1068.5 5.91893e-06
    1069.5 5.90712e-06
    1070.5 5.89534e-06
    1071.5 5.88358e-06
    1072.5 5.87185e-06
    1073.5 5.86014e-06
    1074.5 5.84845e-06
    1075.5 5.83679e-06
    1076.5 5.82516e-06
    1077.5 5.81354e-06
    1078.5 5.80195e-06
    1079.5 5.79039e-06
    1080.5 5.77884e-06
    1081.5 5.76733e-06
    1082.5 5.75583e-06
    1083.5 5.74436e-06
    1084.5 5.73291e-06
    1085.5 5.72149e-06
    1086.5 5.71009e-06
    1087.5 5.69871e-06
    1088.5 5.68736e-06
    1089.5 5.67603e-06
    1090.5 5.66472e-06
    1091.5 5.65344e-06
    1092.5 5.64218e-06
    1093.5 5.63094e-06
    1094.5 5.61973e-06
    1095.5 5.60854e-06
    1096.5 5.59737e-06
    1097.5 5.58622e-06
    1098.5 5.5751e-06
    1099.5  5.564e-06
    1100.5 5.55293e-06
    1101.5 5.54187e-06
    1102.5 5.53084e-06
    1103.5 5.51983e-06
    1104.5 5.50885e-06
    1105.5 5.49788e-06
    1106.5 5.48694e-06
    1107.5 5.47602e-06
    1108.5 5.46513e-06
    1109.5 5.45425e-06
    1110.5 5.4434e-06
    1111.5 5.43257e-06
    1112.5 5.42176e-06
    1113.5 5.41098e-06
    1114.5 5.40022e-06
    1115.5 5.38948e-06
    1116.5 5.37876e-06
    1117.5 5.36806e-06
    1118.5 5.35738e-06
    1119.5 5.34673e-06
    1120.5 5.3361e-06
    1121.5 5.32549e-06
    1122.5 5.3149e-06
    1123.5 5.30434e-06
    1124.5 5.29379e-06
    1125.5 5.28327e-06
    1126.5 5.27277e-06
    1127.5 5.26229e-06
    1128.5 5.25183e-06
    1129.5 5.24139e-06
    1130.5 5.23097e-06
    1131.5 5.22058e-06
    1132.5 5.2102e-06
    1133.5 5.19985e-06
    1134.5 5.18952e-06
    1135.5 5.17921e-06
    1136.5 5.16892e-06
    1137.5 5.15865e-06
    1138.5 5.14841e-06
    1139.5 5.13818e-06
    1140.5 5.12798e-06
    1141.5 5.11779e-06
    1142.5 5.10763e-06
    1143.5 5.09749e-06
    1144.5 5.08736e-06
    1145.5 5.07726e-06
    1146.5 5.06718e-06
    1147.5 5.05712e-06
    1148.5 5.04708e-06
    1149.5 5.03706e-06
    1150.5 5.02706e-06
    1151.5 5.01708e-06
    1152.5 5.00713e-06
    1153.5 4.99719e-06
    1154.5 4.98727e-06
    1155.5 4.97737e-06
    1156.5 4.96749e-06
    1157.5 4.95764e-06
    1158.5 4.9478e-06
    1159.5 4.93798e-06
    1160.5 4.92819e-06
    1161.5 4.91841e-06
    1162.5 4.90865e-06
    1163.5 4.89891e-06
    1164.5 4.8892e-06
    1165.5 4.8795e-06
    1166.5 4.86982e-06
    1167.5 4.86016e-06
    1168.5 4.85052e-06
    1169.5 4.84091e-06
    1170.5 4.83131e-06
    1171.5 4.82173e-06
    1172.5 4.81217e-06
    1173.5 4.80262e-06
    1174.5 4.7931e-06
    1175.5 4.7836e-06
    1176.5 4.77412e-06
    1177.5 4.76465e-06
    1178.5 4.75521e-06
    1179.5 4.74578e-06
    1180.5 4.73638e-06
    1181.5 4.72699e-06
    1182.5 4.71762e-06
    1183.5 4.70827e-06
    1184.5 4.69895e-06
    1185.5 4.68963e-06
    1186.5 4.68034e-06
    1187.5 4.67107e-06
    1188.5 4.66181e-06
    1189.5 4.65258e-06
    1190.5 4.64336e-06
    1191.5 4.63416e-06
    1192.5 4.62499e-06
    1193.5 4.61582e-06
    1194.5 4.60668e-06
    1195.5 4.59756e-06
    1196.5 4.58845e-06
    1197.5 4.57937e-06
    1198.5 4.5703e-06
    1199.5 4.56125e-06
    1200.5 4.55222e-06
    1201.5 4.5432e-06
    1202.5 4.53421e-06
    1203.5 4.52523e-06
    1204.5 4.51627e-06
    1205.5 4.50733e-06
    1206.5 4.49841e-06
    1207.5 4.48951e-06
    1208.5 4.48062e-06
    1209.5 4.47175e-06
    1210.5 4.4629e-06
    1211.5 4.45407e-06
    1212.5 4.44526e-06
    1213.5 4.43646e-06
    1214.5 4.42768e-06
    1215.5 4.41892e-06
    1216.5 4.41018e-06
    1217.5 4.40145e-06
    1218.5 4.39274e-06
    1219.5 4.38405e-06
    1220.5 4.37538e-06
    1221.5 4.36673e-06
    1222.5 4.35809e-06
    1223.5 4.34947e-06
    1224.5 4.34087e-06
    1225.5 4.33228e-06
    1226.5 4.32371e-06
    1227.5 4.31516e-06
    1228.5 4.30663e-06
    1229.5 4.29811e-06
    1230.5 4.28962e-06
    1231.5 4.28113e-06
    1232.5 4.27267e-06
    1233.5 4.26422e-06
    1234.5 4.25579e-06
    1235.5 4.24738e-06
    1236.5 4.23898e-06
    1237.5 4.2306e-06
    1238.5 4.22224e-06
    1239.5 4.2139e-06
    1240.5 4.20557e-06
    1241.5 4.19726e-06
    1242.5 4.18896e-06
    1243.5 4.18068e-06
    1244.5 4.17242e-06
    1245.5 4.16418e-06
    1246.5 4.15595e-06
    1247.5 4.14774e-06
    1248.5 4.13954e-06
    1249.5 4.13136e-06
    1250.5 4.1232e-06
    1251.5 4.11506e-06
    1252.5 4.10693e-06
    1253.5 4.09882e-06
    1254.5 4.09072e-06
    1255.5 4.08264e-06
    1256.5 4.07458e-06
    1257.5 4.06653e-06
    1258.5 4.0585e-06
    1259.5 4.05048e-06
    1260.5 4.04248e-06
    1261.5 4.0345e-06
    1262.5 4.02653e-06
    1263.5 4.01858e-06
    1264.5 4.01065e-06
    1265.5 4.00273e-06
    1266.5 3.99483e-06
    1267.5 3.98694e-06
    1268.5 3.97907e-06
    1269.5 3.97122e-06
    1270.5 3.96338e-06
    1271.5 3.95555e-06
    1272.5 3.94775e-06
    1273.5 3.93996e-06
    1274.5 3.93218e-06
    1275.5 3.92442e-06
    1276.5 3.91667e-06
    1277.5 3.90895e-06
    1278.5 3.90123e-06
    1279.5 3.89353e-06
    1280.5 3.88585e-06
    1281.5 3.87818e-06
    1282.5 3.87053e-06
    1283.5 3.8629e-06
    1284.5 3.85528e-06
    1285.5 3.84767e-06
    1286.5 3.84008e-06
    1287.5 3.8325e-06
    1288.5 3.82494e-06
    1289.5 3.8174e-06
    1290.5 3.80987e-06
    1291.5 3.80236e-06
    1292.5 3.79486e-06
    1293.5 3.78737e-06
    1294.5 3.7799e-06
    1295.5 3.77245e-06
    1296.5 3.76501e-06
    1297.5 3.75759e-06
    1298.5 3.75018e-06
    1299.5 3.74278e-06
    1300.5 3.7354e-06
    1301.5 3.72804e-06
    1302.5 3.72069e-06
    1303.5 3.71336e-06
    1304.5 3.70604e-06
    1305.5 3.69873e-06
    1306.5 3.69144e-06
    1307.5 3.68416e-06
    1308.5 3.6769e-06