1 0.36075
2 0.334912
3 0.317489
4 0.305908
5 0.298356
6 0.293631
7 0.290935
8 0.289736
9 0.289676
10 0.290514
11 0.292086
12 0.294287
13 0.297052
14 0.300346
15 0.304161
16 0.30851
17 0.313422
18 0.318947
19 0.325149
20 0.332105
21 0.339908
22 0.348661
23 0.358474
24 0.369463
25 0.381748
26 0.395449
27 0.410691
28 0.427602
29 0.44632
30 0.466998
31 0.489819
32 0.515
33 0.542811
34 0.573586
35 0.607745
36 0.645812
37 0.688439
38 0.736442
39 0.790835
40 0.852883
41 0.924159
42 1.00662
43 1.10271
44 1.21542
45 1.34839
46 1.50591
47 1.69272
48 1.91323
49 2.16957
50 2.45643
51 2.74894
52 2.97619
53 2.98019
54 2.57488
55 1.93342
56 1.46018
57 1.21437
58 1.11545
59 1.10331
60 1.14317
61 1.20921
62 1.28059
63 1.34003
64 1.37445
65 1.37846
66 1.35646
67 1.3191
68 1.27904
69 1.24557
70 1.22297
71 1.21148
72 1.20891
73 1.21196
74 1.2172
75 1.22171
76 1.22354
77 1.22189
78 1.21704
79 1.21
80 1.20207
81 1.19442
82 1.18785
83 1.18274
84 1.17905
85 1.17646
86 1.17452
87 1.17281
88 1.17096
89 1.16879
90 1.16622
91 1.16334
92 1.16027
93 1.15717
94 1.15417
95 1.15137
96 1.1488
97 1.14645
98 1.14427
99 1.14221
100 1.14022
101 1.13824
102 1.13626
103 1.13426
104 1.13226
105 1.13026
106 1.1283
107 1.12637
108 1.1245
109 1.12268
110 1.12091
111 1.1192
112 1.11752
113 1.11587
114 1.11424
115 1.11264
116 1.11105
117 1.10948
118 1.10793
119 1.1064
120 1.1049
121 1.10341
122 1.10195
123 1.10051
124 1.09909
125 1.09769
126 1.09631
127 1.09494
128 1.09358
129 1.09225
130 1.09092
131 1.08961
132 1.08831
133 1.08702
134 1.08575
135 1.08449
136 1.08324
137 1.082
138 1.08077
139 1.07956
140 1.07835
141 1.07715
142 1.07596
143 1.07478
144 1.07361
145 1.07245
146 1.0713
147 1.07016
148 1.06902
149 1.06789
150 1.06677
151 1.06566
152 1.06455
153 1.06345
154 1.06236
155 1.06128
156 1.0602
157 1.05913
158 1.05807
159 1.05701
160 1.05596
161 1.05492
162 1.05388
163 1.05285
164 1.05183
165 1.05081
166 1.0498
167 1.0488
168 1.0478
169 1.04681
170 1.04582
171 1.04484
172 1.04387
173 1.0429
174 1.04194
175 1.04098
176 1.04003
177 1.03909
178 1.03815
179 1.03722
180 1.03629
181 1.03537
182 1.03446
183 1.03355
184 1.03265
185 1.03175
186 1.03086
187 1.02997
188 1.02909
189 1.02822
190 1.02735
191 1.02648
192 1.02562
193 1.02477
194 1.02392
195 1.02308
196 1.02224
197 1.0214
198 1.02058
199 1.01975
200 1.01893
201 1.01812
202 1.01731
203 1.01651
204 1.01571
205 1.01491
206 1.01412
207 1.01333
208 1.01255
209 1.01176
210 1.01099
211 1.01021
212 1.00944
213 1.00867
214 1.0079
215 1.00713
216 1.00637
217 1.0056
218 1.00484
219 1.00407
220 1.00331
221 1.00255
222 1.00178
223 1.00102
224 1.00026
225 0.999489
226 0.998721
227 0.997951
228 0.997179
229 0.996406
230 0.99563
231 0.994852
232 0.994071
233 0.993288
234 0.992503
235 0.991715
236 0.990924
237 0.990131
238 0.989335
239 0.988537
240 0.987737
241 0.986934
242 0.986129
243 0.985322
244 0.984513
245 0.983702
246 0.982889
247 0.982075
248 0.981259
249 0.980443
250 0.979625
251 0.978806
252 0.977987
253 0.977167
254 0.976347
255 0.975527
256 0.974706
257 0.973886
258 0.973067
259 0.972247
260 0.971429
261 0.970611
262 0.969794
263 0.968979
264 0.968165
265 0.967352
266 0.966541
267 0.965731
268 0.964924
269 0.964118
270 0.963314
271 0.962513
272 0.961714
273 0.960917
274 0.960123
275 0.959331
276 0.958542
277 0.957756
278 0.956973
279 0.956192
280 0.955415
281 0.954641
282 0.95387
283 0.953102
284 0.952338
285 0.951577
286 0.95082
287 0.950066
288 0.949316
289 0.948569
290 0.947826
291 0.947087
292 0.946352
293 0.94562
294 0.944892
295 0.944168
296 0.943448
297 0.942732
298 0.94202
299 0.941311
300 0.940607
301 0.939906
302 0.93921
303 0.938518
304 0.937829
305 0.937145
306 0.936464
307 0.935788
308 0.935115
309 0.934447
310 0.933783
311 0.933122
312 0.932466
313 0.931814
314 0.931165
315 0.930521
316 0.92988
317 0.929244
318 0.928611
319 0.927983
320 0.927358
321 0.926737
322 0.926121
323 0.925508
324 0.924898
325 0.924293
326 0.923692
327 0.923094
328 0.9225
329 0.92191
330 0.921324
331 0.920742
332 0.920163
333 0.919588
334 0.919016
335 0.918449
336 0.917884
337 0.917324
338 0.916767
339 0.916213
340 0.915664
341 0.915117
342 0.914574
343 0.914035
344 0.913499
345 0.912966
346 0.912437
347 0.911911
348 0.911389
349 0.91087
350 0.910354
351 0.909841
352 0.909332
353 0.908826
354 0.908323
355 0.907823
356 0.907327
357 0.906833
358 0.906343
359 0.905855
360 0.905371
361 0.90489
362 0.904411
363 0.903936
364 0.903464
365 0.902994
366 0.902528
367 0.902064
368 0.901603
369 0.901145
370 0.90069
371 0.900238
372 0.899788
373 0.899341
374 0.898897
375 0.898456
376 0.898017
377 0.897581
378 0.897147
379 0.896717
380 0.896288
381 0.895863
382 0.895439
383 0.895019
384 0.894601
385 0.894185
386 0.893772
387 0.893361
388 0.892953
389 0.892547
390 0.892143
391 0.891742
392 0.891344
393 0.890947
394 0.890553
395 0.890161
396 0.889771
397 0.889384
398 0.888999
399 0.888616
400 0.888235
401 0.887857
402 0.887481
403 0.887106
404 0.886734
405 0.886364
406 0.885996
407 0.88563
408 0.885267
409 0.884905
410 0.884545
411 0.884187
412 0.883832
413 0.883478
414 0.883126
415 0.882776
416 0.882428
417 0.882082
418 0.881738
419 0.881395
420 0.881055
421 0.880716
422 0.880379
423 0.880044
424 0.879711
425 0.879379
426 0.879049
427 0.878721
428 0.878395
429 0.87807
430 0.877747
431 0.877426
432 0.877106
433 0.876788
434 0.876471
435 0.876156
436 0.875843
437 0.875531
438 0.875221
439 0.874912
440 0.874605
441 0.8743
442 0.873995
443 0.873693
444 0.873391
445 0.873091
446 0.872793
447 0.872496
448 0.8722
449 0.871906
450 0.871613
451 0.871321
452 0.871031
453 0.870742
454 0.870454
455 0.870168
456 0.869883
457 0.869599
458 0.869316
459 0.869035
460 0.868754
461 0.868475
462 0.868197
463 0.867921
464 0.867645
465 0.86737
466 0.867097
467 0.866825
468 0.866554
469 0.866283
470 0.866014
471 0.865746
472 0.865479
473 0.865213
474 0.864948
475 0.864684
476 0.864421
477 0.864159
478 0.863898
479 0.863637
480 0.863378
481 0.86312
482 0.862862
483 0.862605
484 0.862349
485 0.862094
486 0.86184
487 0.861587
488 0.861335
489 0.861083
490 0.860832
491 0.860582
492 0.860333
493 0.860084
494 0.859836
495 0.859589
496 0.859343
497 0.859097
498 0.858852
499 0.858608
500 0.858364
501 0.858121
502 0.857879
503 0.857637
504 0.857396
505 0.857156
506 0.856916
507 0.856677
508 0.856438
509 0.8562
510 0.855963
511 0.855726
512 0.85549
513 0.855254
514 0.855019
515 0.854785
516 0.854551
517 0.854317
518 0.854084
519 0.853852
520 0.85362
521 0.853389
522 0.853158
523 0.852927
524 0.852697
525 0.852468
526 0.852239
527 0.85201
528 0.851782
529 0.851555
530 0.851328
531 0.851101
532 0.850875
533 0.850649
534 0.850423
535 0.850198
536 0.849974
537 0.84975
538 0.849526
539 0.849303
540 0.84908
541 0.848857
542 0.848635
543 0.848413
544 0.848192
545 0.847971
546 0.847751
547 0.84753
548 0.84731
549 0.847091
550 0.846872
551 0.846653
552 0.846435
553 0.846217
554 0.845999
555 0.845782
556 0.845565
557 0.845348
558 0.845132
559 0.844916
560 0.8447
561 0.844485
562 0.84427
563 0.844055
564 0.843841
565 0.843627
566 0.843413
567 0.8432
568 0.842987
569 0.842774
570 0.842561
571 0.842349
572 0.842137
573 0.841926
574 0.841715
575 0.841504
576 0.841293
577 0.841083
578 0.840873
579 0.840663
580 0.840453
581 0.840244
582 0.840035
583 0.839827
584 0.839619
585 0.839411
586 0.839203
587 0.838995
588 0.838788
589 0.838581
590 0.838375
591 0.838169
592 0.837963
593 0.837757
594 0.837551
595 0.837346
596 0.837141
597 0.836937
598 0.836732
599 0.836528
600 0.836324
601 0.836121
602 0.835918
603 0.835715
604 0.835512
605 0.835309
606 0.835107
607 0.834905
608 0.834704
609 0.834502
610 0.834301
611 0.8341
612 0.8339
613 0.833699
614 0.833499
615 0.833299
616 0.8331
617 0.832901
618 0.832701
619 0.832503
620 0.832304
621 0.832106
622 0.831908
623 0.83171
624 0.831513
625 0.831316
626 0.831119
627 0.830922
628 0.830726
629 0.830529
630 0.830334
631 0.830138
632 0.829943
633 0.829747
634 0.829553
635 0.829358
636 0.829164
637 0.828969
638 0.828776
639 0.828582
640 0.828389
641 0.828196
642 0.828003
643 0.82781
644 0.827618
645 0.827426
646 0.827234
647 0.827043
648 0.826852
649 0.826661
650 0.82647
651 0.826279
652 0.826089
653 0.825899
654 0.82571
655 0.82552
656 0.825331
657 0.825142
658 0.824954
659 0.824765
660 0.824577
661 0.824389
662 0.824202
663 0.824014
664 0.823827
665 0.823641
666 0.823454
667 0.823268
668 0.823082
669 0.822896
670 0.822711
671 0.822526
672 0.822341
673 0.822156
674 0.821972
675 0.821788
676 0.821604
677 0.82142
678 0.821237
679 0.821054
680 0.820871
681 0.820689
682 0.820506
683 0.820324
684 0.820143
685 0.819961
686 0.81978
687 0.819599
688 0.819419
689 0.819238
690 0.819058
691 0.818879
692 0.818699
693 0.81852
694 0.818341
695 0.818162
696 0.817984
697 0.817806
698 0.817628
699 0.817451
700 0.817273
701 0.817096
702 0.81692
703 0.816743
704 0.816567
705 0.816391
706 0.816215
707 0.81604
708 0.815865
709 0.81569
710 0.815516
711 0.815342
712 0.815168
713 0.814994
714 0.814821
715 0.814648
716 0.814475
717 0.814302
718 0.81413
719 0.813958
720 0.813786
721 0.813615
722 0.813444
723 0.813273
724 0.813102
725 0.812932
726 0.812762
727 0.812592
728 0.812423
729 0.812253
730 0.812084
731 0.811916
732 0.811748
733 0.811579
734 0.811412
735 0.811244
736 0.811077
737 0.81091
738 0.810743
739 0.810577
740 0.810411
741 0.810245
742 0.810079
743 0.809914
744 0.809749
745 0.809584
746 0.80942
747 0.809256
748 0.809092
749 0.808928
750 0.808765
751 0.808602
752 0.808439
753 0.808276
754 0.808114
755 0.807952
756 0.807791
757 0.807629
758 0.807468
759 0.807307
760 0.807146
761 0.806986
762 0.806826
763 0.806666
764 0.806507
765 0.806348
766 0.806189
767 0.80603
768 0.805871
769 0.805713
770 0.805555
771 0.805398
772 0.80524
773 0.805083
774 0.804927
775 0.80477
776 0.804614
777 0.804458
778 0.804302
779 0.804147
780 0.803991
781 0.803836
782 0.803682
783 0.803527
784 0.803373
785 0.803219
786 0.803066
787 0.802912
788 0.802759
789 0.802606
790 0.802454
791 0.802301
792 0.802149
793 0.801997
794 0.801846
795 0.801695
796 0.801544
797 0.801393
798 0.801242
799 0.801092
800 0.800942
801 0.800792
802 0.800643
803 0.800493
804 0.800344
805 0.800196
806 0.800047
807 0.799899
808 0.799751
809 0.799603
810 0.799456
811 0.799308
812 0.799161
813 0.799014
814 0.798868
815 0.798722
816 0.798576
817 0.79843
818 0.798284
819 0.798139
820 0.797994
821 0.797849
822 0.797704
823 0.79756
824 0.797416
825 0.797272
826 0.797128
827 0.796985
828 0.796842
829 0.796699
830 0.796556
831 0.796414
832 0.796271
833 0.796129
834 0.795988
835 0.795846
836 0.795705
837 0.795564
838 0.795423
839 0.795282
840 0.795142
841 0.795002
842 0.794862
843 0.794722
844 0.794583
845 0.794444
846 0.794305
847 0.794166
848 0.794027
849 0.793889
850 0.793751
851 0.793613
852 0.793476
853 0.793338
854 0.793201
855 0.793064
856 0.792927
857 0.792791
858 0.792654
859 0.792518
860 0.792382
861 0.792247
862 0.792111
863 0.791976
864 0.791841
865 0.791706
866 0.791571
867 0.791437
868 0.791303
869 0.791169
870 0.791035
871 0.790902
872 0.790768
873 0.790635
874 0.790502
875 0.790369
876 0.790237
877 0.790104
878 0.789972
879 0.78984
880 0.789708
881 0.789577
882 0.789445
883 0.789314
884 0.789183
885 0.789052
886 0.788922
887 0.788791
888 0.788661
889 0.788531
890 0.788401
891 0.788271
892 0.788142
893 0.788012
894 0.787883
895 0.787754
896 0.787625
897 0.787497
898 0.787368
899 0.78724
900 0.787112
901 0.786984
902 0.786856
903 0.786728
904 0.786601
905 0.786473
906 0.786346
907 0.786219
908 0.786092
909 0.785966
910 0.785839
911 0.785713
912 0.785587
913 0.785461
914 0.785335
915 0.785209
916 0.785083
917 0.784958
918 0.784833
919 0.784708
920 0.784583
921 0.784458
922 0.784333
923 0.784208
924 0.784084
925 0.78396
926 0.783836
927 0.783712
928 0.783588
929 0.783464
930 0.783341
931 0.783217
932 0.783094
933 0.782971
934 0.782848
935 0.782725
936 0.782602
937 0.782479
938 0.782357
939 0.782235
940 0.782112
941 0.78199
942 0.781868
943 0.781747
944 0.781625
945 0.781503
946 0.781382
947 0.781261
948 0.781139
949 0.781018
950 0.780897
951 0.780776
952 0.780656
953 0.780535
954 0.780415
955 0.780294
956 0.780174
957 0.780054
958 0.779934
959 0.779814
960 0.779695
961 0.779575
962 0.779455
963 0.779336
964 0.779217
965 0.779098
966 0.778978
967 0.77886
968 0.778741
969 0.778622
970 0.778503
971 0.778385
972 0.778266
973 0.778148
974 0.77803
975 0.777912
976 0.777794
977 0.777676
978 0.777558
979 0.777441
980 0.777323
981 0.777206
982 0.777088
983 0.776971
984 0.776854
985 0.776737
986 0.77662
987 0.776503
988 0.776387
989 0.77627
990 0.776153
991 0.776037
992 0.775921
993 0.775804
994 0.775688
995 0.775572
996 0.775456
997 0.775341
998 0.775225
999 0.775109
1000 0.774994
1001 0.774878
1002 0.774763
1003 0.774647
1004 0.774532
1005 0.774417
1006 0.774302
1007 0.774187
1008 0.774072
1009 0.773958
1010 0.773843
1011 0.773728
1012 0.773614
1013 0.7735
1014 0.773385
1015 0.773271
1016 0.773157
1017 0.773043
1018 0.772929
1019 0.772815
1020 0.772701
1021 0.772588
1022 0.772474
1023 0.772361
1024 0.772247
1025 0.772134
1026 0.772021
1027 0.771907
1028 0.771794
1029 0.771681
1030 0.771568
1031 0.771456
1032 0.771343
1033 0.77123
1034 0.771118
1035 0.771005
1036 0.770893
1037 0.77078
1038 0.770668
1039 0.770556
1040 0.770444
1041 0.770332
1042 0.77022
1043 0.770108
1044 0.769996
1045 0.769885
1046 0.769773
1047 0.769661
1048 0.76955
1049 0.769439
1050 0.769327
1051 0.769216
1052 0.769105
1053 0.768994
1054 0.768883
1055 0.768772
1056 0.768661
1057 0.768551
1058 0.76844
1059 0.768329
1060 0.768219
1061 0.768109
1062 0.767998
1063 0.767888
1064 0.767778
1065 0.767668
1066 0.767558
1067 0.767448
1068 0.767338
1069 0.767228
1070 0.767118
1071 0.767009
1072 0.766899
1073 0.76679
1074 0.76668
1075 0.766571
1076 0.766462
1077 0.766353
1078 0.766244
1079 0.766135
1080 0.766026
1081 0.765917
1082 0.765808
1083 0.765699
1084 0.765591
1085 0.765482
1086 0.765374
1087 0.765265
1088 0.765157
1089 0.765049
1090 0.76494
1091 0.764832
1092 0.764724
1093 0.764616
1094 0.764508
1095 0.7644
1096 0.764293
1097 0.764185
1098 0.764077
1099 0.76397
1100 0.763862
1101 0.763755
1102 0.763648
1103 0.76354
1104 0.763433
1105 0.763326
1106 0.763219
1107 0.763112
1108 0.763005
1109 0.762898
1110 0.762792
1111 0.762685
1112 0.762578
1113 0.762472
1114 0.762365
1115 0.762259
1116 0.762153
1117 0.762046
1118 0.76194
1119 0.761834
1120 0.761728
1121 0.761622
1122 0.761516
1123 0.76141
1124 0.761304
1125 0.761199
1126 0.761093
1127 0.760987
1128 0.760882
1129 0.760776
1130 0.760671
1131 0.760566
1132 0.76046
1133 0.760355
1134 0.76025
1135 0.760145
1136 0.76004
1137 0.759935
1138 0.75983
1139 0.759725
1140 0.759621
1141 0.759516
1142 0.759411
1143 0.759307
1144 0.759202
1145 0.759098
1146 0.758993
1147 0.758889
1148 0.758785
1149 0.758681
1150 0.758576
1151 0.758472
1152 0.758368
1153 0.758264
1154 0.75816
1155 0.758057
1156 0.757953
1157 0.757849
1158 0.757745
1159 0.757642
1160 0.757538
1161 0.757435
1162 0.757331
1163 0.757228
1164 0.757125
1165 0.757021
1166 0.756918
1167 0.756815
1168 0.756712
1169 0.756609
1170 0.756506
1171 0.756403
1172 0.7563
1173 0.756197
1174 0.756095
1175 0.755992
1176 0.755889
1177 0.755787
1178 0.755684
1179 0.755582
1180 0.755479
1181 0.755377
1182 0.755274
1183 0.755172
1184 0.75507
1185 0.754968
1186 0.754865
1187 0.754763
1188 0.754661
1189 0.754559
1190 0.754457
1191 0.754355
1192 0.754254
1193 0.754152
1194 0.75405
1195 0.753948
1196 0.753847
1197 0.753745
1198 0.753644
1199 0.753542
1200 0.753441
1201 0.753339
1202 0.753238
1203 0.753136
1204 0.753035
1205 0.752934
1206 0.752833
1207 0.752732
1208 0.75263
1209 0.752529
1210 0.752428
1211 0.752327
1212 0.752227
1213 0.752126
1214 0.752025
1215 0.751924
1216 0.751823
1217 0.751723
1218 0.751622
1219 0.751521
1220 0.751421
1221 0.75132
1222 0.75122
1223 0.751119
1224 0.751019
1225 0.750918
1226 0.750818
1227 0.750718
1228 0.750617
1229 0.750517
1230 0.750417
1231 0.750317
1232 0.750217
1233 0.750117
1234 0.750017
1235 0.749917
1236 0.749817
1237 0.749717
1238 0.749617
1239 0.749517
1240 0.749417
1241 0.749318
1242 0.749218
1243 0.749118
1244 0.749019
1245 0.748919
1246 0.748819
1247 0.74872
1248 0.74862
1249 0.748521
1250 0.748421
1251 0.748322
1252 0.748223
1253 0.748123
1254 0.748024
1255 0.747925
1256 0.747826
1257 0.747726
1258 0.747627
1259 0.747528
1260 0.747429
1261 0.74733
1262 0.747231
1263 0.747132
1264 0.747033
1265 0.746934
1266 0.746835
1267 0.746736
1268 0.746637
1269 0.746539
1270 0.74644
1271 0.746341
1272 0.746242
1273 0.746144
1274 0.746045
1275 0.745946
1276 0.745848
1277 0.745749
1278 0.745651
1279 0.745552
1280 0.745454
1281 0.745355
1282 0.745257
1283 0.745159
1284 0.74506
1285 0.744962
1286 0.744864
1287 0.744765
1288 0.744667
1289 0.744569
1290 0.744471
1291 0.744373
1292 0.744275
1293 0.744177
1294 0.744078
1295 0.74398
1296 0.743882
1297 0.743784
1298 0.743687
1299 0.743589
1300 0.743491
1301 0.743393
1302 0.743295
1303 0.743197
1304 0.743099
1305 0.743002
1306 0.742904
1307 0.742806
1308 0.742709
1309 0.742611
1310 0.742513
1311 0.742416
1312 0.742318
1313 0.742221
1314 0.742123
1315 0.742026
1316 0.741928
1317 0.741831
1318 0.741733
1319 0.741636
1320 0.741539
1321 0.741441
1322 0.741344
1323 0.741247
1324 0.741149
1325 0.741052
1326 0.740955
1327 0.740858
1328 0.740761
1329 0.740663
1330 0.740566
1331 0.740469
1332 0.740372
1333 0.740275
1334 0.740178
1335 0.740081
1336 0.739984
1337 0.739887
1338 0.73979
1339 0.739693
1340 0.739597
1341 0.7395
1342 0.739403
1343 0.739306
1344 0.739209
1345 0.739112
1346 0.739016
1347 0.738919
1348 0.738822
1349 0.738726
1350 0.738629
1351 0.738532
1352 0.738436
1353 0.738339
1354 0.738243
1355 0.738146
1356 0.73805
1357 0.737953
1358 0.737857
1359 0.73776
1360 0.737664
1361 0.737567
1362 0.737471
1363 0.737375
1364 0.737278
1365 0.737182
1366 0.737086
1367 0.736989
1368 0.736893
1369 0.736797
1370 0.736701
1371 0.736604
1372 0.736508
1373 0.736412
1374 0.736316
1375 0.73622
1376 0.736124
1377 0.736028
1378 0.735932
1379 0.735835
1380 0.735739
1381 0.735643
1382 0.735548
1383 0.735452
1384 0.735356
1385 0.73526
1386 0.735164
1387 0.735068
1388 0.734972
1389 0.734876
1390 0.73478
1391 0.734685
1392 0.734589
1393 0.734493
1394 0.734397
1395 0.734302
1396 0.734206
1397 0.73411
1398 0.734015
1399 0.733919
1400 0.733823
1401 0.733728
1402 0.733632
1403 0.733537
1404 0.733441
1405 0.733346
1406 0.73325
1407 0.733155
1408 0.733059
1409 0.732964
1410 0.732868
1411 0.732773
1412 0.732678
1413 0.732582
1414 0.732487
1415 0.732392
1416 0.732296
1417 0.732201
1418 0.732106
1419 0.73201
1420 0.731915
1421 0.73182
1422 0.731725
1423 0.73163
1424 0.731534
1425 0.731439
1426 0.731344
1427 0.731249
1428 0.731154
1429 0.731059
1430 0.730964
1431 0.730869
1432 0.730774
1433 0.730679
1434 0.730584
1435 0.730489
1436 0.730394
1437 0.730299
1438 0.730204
1439 0.730109
1440 0.730014
1441 0.729919
1442 0.729825
1443 0.72973
1444 0.729635
1445 0.72954
1446 0.729445
1447 0.729351
1448 0.729256
1449 0.729161
1450 0.729067
1451 0.728972
1452 0.728877
1453 0.728783
1454 0.728688
1455 0.728593
1456 0.728499
1457 0.728404
1458 0.72831
1459 0.728215
1460 0.728121
1461 0.728026
1462 0.727932
1463 0.727837
1464 0.727743
1465 0.727648
1466 0.727554
1467 0.72746
1468 0.727365
1469 0.727271
1470 0.727177
1471 0.727082
1472 0.726988
1473 0.726894
1474 0.726799
1475 0.726705
1476 0.726611
1477 0.726517
1478 0.726423
1479 0.726328
1480 0.726234
1481 0.72614
1482 0.726046
1483 0.725952
1484 0.725858
1485 0.725764
1486 0.72567
1487 0.725576
1488 0.725482
1489 0.725388
1490 0.725294
1491 0.7252
1492 0.725106
1493 0.725012
1494 0.724918
1495 0.724824
1496 0.72473
1497 0.724636
1498 0.724542
1499 0.724449
1500 0.724355
1501 0.724261
1502 0.724167
1503 0.724073
1504 0.72398
1505 0.723886
1506 0.723792
1507 0.723699
1508 0.723605
1509 0.723511
1510 0.723418
1511 0.723324
1512 0.72323
1513 0.723137
1514 0.723043
1515 0.72295
1516 0.722856
1517 0.722763
1518 0.722669
1519 0.722576
1520 0.722482
1521 0.722389
1522 0.722295
1523 0.722202
1524 0.722109
1525 0.722015
1526 0.721922
1527 0.721829
1528 0.721735
1529 0.721642
1530 0.721549
1531 0.721455
1532 0.721362
1533 0.721269
1534 0.721176
1535 0.721083
1536 0.720989
1537 0.720896
1538 0.720803
1539 0.72071
1540 0.720617
1541 0.720524
1542 0.720431
1543 0.720338
1544 0.720245
1545 0.720152
1546 0.720059
1547 0.719966
1548 0.719873
1549 0.71978
1550 0.719687
1551 0.719594
1552 0.719501
1553 0.719408
1554 0.719315
1555 0.719222
1556 0.71913
1557 0.719037
1558 0.718944
1559 0.718851
1560 0.718758
1561 0.718666
1562 0.718573
1563 0.71848
1564 0.718388
1565 0.718295
1566 0.718202
1567 0.71811
1568 0.718017
1569 0.717924
1570 0.717832
1571 0.717739
1572 0.717647
1573 0.717554
1574 0.717462
1575 0.717369
1576 0.717277
1577 0.717184
1578 0.717092
1579 0.716999
1580 0.716907
1581 0.716815
1582 0.716722
1583 0.71663
1584 0.716537
1585 0.716445
1586 0.716353
1587 0.716261
1588 0.716168
1589 0.716076
1590 0.715984
1591 0.715892
1592 0.715799
1593 0.715707
1594 0.715615
1595 0.715523
1596 0.715431
1597 0.715339
1598 0.715247
1599 0.715154
1600 0.715062
1601 0.71497
1602 0.714878
1603 0.714786
1604 0.714694
1605 0.714602
1606 0.71451
1607 0.714418
1608 0.714327
1609 0.714235
1610 0.714143
1611 0.714051
1612 0.713959
1613 0.713867
1614 0.713775
1615 0.713684
1616 0.713592
1617 0.7135
1618 0.713408
1619 0.713317
1620 0.713225
1621 0.713133
1622 0.713041
1623 0.71295
1624 0.712858
1625 0.712767
1626 0.712675
1627 0.712583
1628 0.712492
1629 0.7124
1630 0.712309
1631 0.712217
1632 0.712126
1633 0.712034
1634 0.711943
1635 0.711851
1636 0.71176
1637 0.711668
1638 0.711577
1639 0.711486
1640 0.711394
1641 0.711303
1642 0.711212
1643 0.71112
1644 0.711029
1645 0.710938
1646 0.710846
1647 0.710755
1648 0.710664
1649 0.710573
1650 0.710482
1651 0.71039
1652 0.710299
1653 0.710208
1654 0.710117
1655 0.710026
1656 0.709935
1657 0.709844
1658 0.709753
1659 0.709662
1660 0.709571
1661 0.70948
1662 0.709389
1663 0.709298
1664 0.709207
1665 0.709116
1666 0.709025
1667 0.708934
1668 0.708843
1669 0.708752
1670 0.708661
1671 0.70857
1672 0.70848
1673 0.708389
1674 0.708298
1675 0.708207
1676 0.708117
1677 0.708026
1678 0.707935
1679 0.707844
1680 0.707754
1681 0.707663
1682 0.707573
1683 0.707482
1684 0.707391
1685 0.707301
1686 0.70721
1687 0.70712
1688 0.707029
1689 0.706939
1690 0.706848
1691 0.706758
1692 0.706667
1693 0.706577
1694 0.706486
1695 0.706396
1696 0.706305
1697 0.706215
1698 0.706125
1699 0.706034
1700 0.705944
1701 0.705854
1702 0.705763
1703 0.705673
1704 0.705583
1705 0.705493
1706 0.705402
1707 0.705312
1708 0.705222
1709 0.705132
1710 0.705042
1711 0.704952
1712 0.704861
1713 0.704771
1714 0.704681
1715 0.704591
1716 0.704501
1717 0.704411
1718 0.704321
1719 0.704231
1720 0.704141
1721 0.704051
1722 0.703961
1723 0.703871
1724 0.703781
1725 0.703691
1726 0.703602
1727 0.703512
1728 0.703422
1729 0.703332
1730 0.703242
1731 0.703152
1732 0.703063
1733 0.702973
1734 0.702883
1735 0.702793
1736 0.702704
1737 0.702614
1738 0.702524
1739 0.702435
1740 0.702345
1741 0.702255
1742 0.702166
1743 0.702076
1744 0.701987
1745 0.701897
1746 0.701808
1747 0.701718
1748 0.701629
1749 0.701539
1750 0.70145
1751 0.70136
1752 0.701271
1753 0.701181
1754 0.701092
1755 0.701003
1756 0.700913
1757 0.700824
1758 0.700735
1759 0.700645
1760 0.700556
1761 0.700467
1762 0.700378
1763 0.700288
1764 0.700199
1765 0.70011
1766 0.700021
1767 0.699932
1768 0.699843
1769 0.699753
1770 0.699664
1771 0.699575
1772 0.699486
1773 0.699397
1774 0.699308
1775 0.699219
1776 0.69913
1777 0.699041
1778 0.698952
1779 0.698863
1780 0.698774
1781 0.698685
1782 0.698596
1783 0.698508
1784 0.698419
1785 0.69833
1786 0.698241
1787 0.698152
1788 0.698063
1789 0.697975
1790 0.697886
1791 0.697797
1792 0.697709
1793 0.69762
1794 0.697531
1795 0.697443
1796 0.697354
1797 0.697265
1798 0.697177
1799 0.697088
1800 0.697
1801 0.696911
1802 0.696822
1803 0.696734
1804 0.696645
1805 0.696557
1806 0.696469
1807 0.69638
1808 0.696292
1809 0.696203
1810 0.696115
1811 0.696027
1812 0.695938
1813 0.69585
1814 0.695762
1815 0.695673
1816 0.695585
1817 0.695497
1818 0.695409
1819 0.69532
1820 0.695232
1821 0.695144
1822 0.695056
1823 0.694968
1824 0.69488
1825 0.694792
1826 0.694704
1827 0.694615
1828 0.694527
1829 0.694439
1830 0.694351
1831 0.694263
1832 0.694176
1833 0.694088
1834 0.694
1835 0.693912
1836 0.693824
1837 0.693736
1838 0.693648
1839 0.69356
1840 0.693473
1841 0.693385
1842 0.693297
1843 0.693209
1844 0.693122
1845 0.693034
1846 0.692946
1847 0.692859
1848 0.692771
1849 0.692683
1850 0.692596
1851 0.692508
1852 0.692421
1853 0.692333
1854 0.692246
1855 0.692158
1856 0.692071
1857 0.691983
1858 0.691896
1859 0.691808
1860 0.691721
1861 0.691634
1862 0.691546
1863 0.691459
1864 0.691372
1865 0.691285
1866 0.691197
1867 0.69111
1868 0.691023
1869 0.690936
1870 0.690848
1871 0.690761
1872 0.690674
1873 0.690587
1874 0.6905
1875 0.690413
1876 0.690326
1877 0.690239
1878 0.690152
1879 0.690065
1880 0.689978
1881 0.689891
1882 0.689804
1883 0.689717
1884 0.689631
1885 0.689544
1886 0.689457
1887 0.68937
1888 0.689283
1889 0.689197
1890 0.68911
1891 0.689023
1892 0.688937
1893 0.68885
1894 0.688763
1895 0.688677
1896 0.68859
1897 0.688504
1898 0.688417
1899 0.688331
1900 0.688244
1901 0.688158
1902 0.688071
1903 0.687985
1904 0.687898
1905 0.687812
1906 0.687726
1907 0.687639
1908 0.687553
1909 0.687467
1910 0.687381
1911 0.687294
1912 0.687208
1913 0.687122
1914 0.687036
1915 0.68695
1916 0.686864
1917 0.686778
1918 0.686692
1919 0.686606
1920 0.68652
1921 0.686434
1922 0.686348
1923 0.686262
1924 0.686176
1925 0.68609
1926 0.686004
1927 0.685918
1928 0.685833
1929 0.685747
1930 0.685661
1931 0.685576
1932 0.68549
1933 0.685404
1934 0.685319
1935 0.685233
1936 0.685147
1937 0.685062
1938 0.684976
1939 0.684891
1940 0.684805
1941 0.68472
1942 0.684635
1943 0.684549
1944 0.684464
1945 0.684379
1946 0.684293
1947 0.684208
1948 0.684123
1949 0.684038
1950 0.683952
1951 0.683867
1952 0.683782
1953 0.683697
1954 0.683612
1955 0.683527
1956 0.683442
1957 0.683357
1958 0.683272
1959 0.683187
1960 0.683102
1961 0.683017
1962 0.682933
1963 0.682848
1964 0.682763
1965 0.682678
1966 0.682594
1967 0.682509
1968 0.682424
1969 0.68234
1970 0.682255
1971 0.68217
1972 0.682086
1973 0.682001
1974 0.681917
1975 0.681832
1976 0.681748
1977 0.681664
1978 0.681579
1979 0.681495
1980 0.681411
1981 0.681326
1982 0.681242
1983 0.681158
1984 0.681074
1985 0.680989
1986 0.680905
1987 0.680821
1988 0.680737
1989 0.680653
1990 0.680569
1991 0.680485
1992 0.680401
1993 0.680317
1994 0.680233
1995 0.68015
1996 0.680066
1997 0.679982
1998 0.679898
1999 0.679815
2000 0.679731
2001 0.679647
2002 0.679564
2003 0.67948
2004 0.679396
2005 0.679313
2006 0.679229
2007 0.679146
2008 0.679062
2009 0.678979
2010 0.678896
2011 0.678812
2012 0.678729
2013 0.678646
2014 0.678563
2015 0.678479
2016 0.678396
2017 0.678313
2018 0.67823
2019 0.678147
2020 0.678064
2021 0.677981
2022 0.677898
2023 0.677815
2024 0.677732
2025 0.677649
2026 0.677566
2027 0.677483
2028 0.677401
2029 0.677318
2030 0.677235
2031 0.677152
2032 0.67707
2033 0.676987
2034 0.676905
2035 0.676822
2036 0.67674
2037 0.676657
2038 0.676575
2039 0.676492
2040 0.67641
2041 0.676327
2042 0.676245
2043 0.676163
2044 0.676081
2045 0.675998
2046 0.675916
2047 0.675834
2048 0.675752
2049 0.67567
2050 0.675588
2051 0.675506
2052 0.675424
2053 0.675342
2054 0.67526
2055 0.675178
2056 0.675096
2057 0.675015
2058 0.674933
2059 0.674851
2060 0.67477
2061 0.674688
2062 0.674606
2063 0.674525
2064 0.674443
2065 0.674362
2066 0.67428
2067 0.674199
2068 0.674117
2069 0.674036
2070 0.673955
2071 0.673873
2072 0.673792
2073 0.673711
2074 0.67363
2075 0.673549
2076 0.673467
2077 0.673386
2078 0.673305
2079 0.673224
2080 0.673143
2081 0.673062
2082 0.672981
2083 0.672901
2084 0.67282
2085 0.672739
2086 0.672658
2087 0.672578
2088 0.672497
2089 0.672416
2090 0.672336
2091 0.672255
2092 0.672175
2093 0.672094
2094 0.672014
2095 0.671933
2096 0.671853
2097 0.671772
2098 0.671692
2099 0.671612
2100 0.671532
2101 0.671451
2102 0.671371
2103 0.671291
2104 0.671211
2105 0.671131
2106 0.671051
2107 0.670971
2108 0.670891
2109 0.670811
2110 0.670731
2111 0.670651
2112 0.670572
2113 0.670492
2114 0.670412
2115 0.670332
2116 0.670253
2117 0.670173
2118 0.670094
2119 0.670014
2120 0.669935
2121 0.669855
2122 0.669776
2123 0.669696
2124 0.669617
2125 0.669538
2126 0.669458
2127 0.669379
2128 0.6693
2129 0.669221
2130 0.669142
2131 0.669063
2132 0.668984
2133 0.668905
2134 0.668826
2135 0.668747
2136 0.668668
2137 0.668589
2138 0.66851
2139 0.668431
2140 0.668353
2141 0.668274
2142 0.668195
2143 0.668117
2144 0.668038
2145 0.66796
2146 0.667881
2147 0.667803
2148 0.667724
2149 0.667646
2150 0.667567
2151 0.667489
2152 0.667411
2153 0.667333
2154 0.667254
2155 0.667176
2156 0.667098
2157 0.66702
2158 0.666942
2159 0.666864
2160 0.666786
2161 0.666708
2162 0.66663
2163 0.666552
2164 0.666474
2165 0.666397
2166 0.666319
2167 0.666241
2168 0.666164
2169 0.666086
2170 0.666008
2171 0.665931
2172 0.665853
2173 0.665776
2174 0.665698
2175 0.665621
2176 0.665544
2177 0.665466
2178 0.665389
2179 0.665312
2180 0.665235
2181 0.665157
2182 0.66508
2183 0.665003
2184 0.664926
2185 0.664849
2186 0.664772
2187 0.664695
2188 0.664618
2189 0.664542
2190 0.664465
2191 0.664388
2192 0.664311
2193 0.664235
2194 0.664158
2195 0.664081
2196 0.664005
2197 0.663928
2198 0.663852
2199 0.663775
2200 0.663699
2201 0.663622
2202 0.663546
2203 0.66347
2204 0.663393
2205 0.663317
2206 0.663241
2207 0.663165
2208 0.663089
2209 0.663013
2210 0.662937
2211 0.662861
2212 0.662785
2213 0.662709
2214 0.662633
2215 0.662557
2216 0.662481
2217 0.662405
2218 0.66233
2219 0.662254
2220 0.662178
2221 0.662103
2222 0.662027
2223 0.661952
2224 0.661876
2225 0.661801
2226 0.661725
2227 0.66165
2228 0.661575
2229 0.661499
2230 0.661424
2231 0.661349
2232 0.661274
2233 0.661198
2234 0.661123
2235 0.661048
2236 0.660973
2237 0.660898
2238 0.660823
2239 0.660748
2240 0.660674
2241 0.660599
2242 0.660524
2243 0.660449
2244 0.660375
2245 0.6603
2246 0.660225
2247 0.660151
2248 0.660076
2249 0.660002
2250 0.659927
2251 0.659853