/*--------------------------------*- C++ -*----------------------------------*\
| =========                 |                                                 |
| \\      /  F ield         | OpenFOAM: The Open Source CFD Toolbox           |
|  \\    /   O peration     | Version:  dev                                   |
|   \\  /    A nd           | Web:      www.OpenFOAM.org                      |
|    \\/     M anipulation  |                                                 |
\*---------------------------------------------------------------------------*/
FoamFile
{
    version     2.0;
    format      ascii;
    class       volScalarField;
    location    "32400";
    object      p;
}
// * * * * * * * * * * * * * * * * * * * * * * * * * * * * * * * * * * * * * //

dimensions      [1 -1 -2 0 0 0 0];

internalField   nonuniform List<scalar> 
64
(
99970.0435527
99889.6614893
99809.3256859
99729.0360168
99648.7925401
99568.5953902
99488.4446954
99408.3405638
99328.2831272
99248.2726065
99168.3093776
99088.3940242
99008.5273722
98928.7105036
98848.9447424
98769.2316132
98689.5727718
98609.9699172
98530.4246972
98450.9386229
98371.5130038
98292.1489118
98212.8471751
98133.6083952
98054.432981
97975.3211892
97896.2731647
97817.2889748
97738.3686364
97659.5121356
97580.7194406
97501.9905095
97423.3252955
97344.7237489
97266.1858191
97187.7114549
97109.3006048
97030.9532175
96952.6692413
96874.448625
96796.2913169
96718.1972658
96640.1664202
96562.1987288
96484.2941406
96406.4526042
96328.6740685
96250.9584826
96173.3057958
96095.7159575
96018.1889179
95940.7246278
95863.3230396
95785.9841072
95708.7077889
95631.4940456
95554.3428481
95477.2541821
95400.2280407
95323.2644849
95246.3635894
95169.5254873
95092.750567
95016.0389282
)
;

boundaryField
{
    ground
    {
        type            calculated;
        value           uniform 100010.24618;
    }
    top
    {
        type            calculated;
        value           uniform 94977.6988876;
    }
    inlet
    {
        type            cyclic;
    }
    outlet
    {
        type            cyclic;
    }
    front
    {
        type            calculated;
        value           nonuniform List<scalar> 
64
(
99971.5012653
99891.1171902
99810.7793823
99730.4877115
99650.2422335
99570.0430825
99489.8903871
99409.7842559
99329.7248194
99249.7122965
99169.7470598
99089.8296888
99009.9610051
98930.142086
98850.3742518
98770.6590241
98690.9980571
98611.3930501
98531.8456529
98452.3573796
98372.9295439
98293.5632222
98214.2592469
98135.0182232
98055.8405631
97976.7265257
97897.6762574
97818.6898267
97739.7672511
97660.9085172
97582.1135931
97503.3824373
97424.7150029
97346.1112404
97267.5710991
97189.0945277
97110.6814748
97032.331889
96954.0457187
96875.8229126
96797.6634192
96719.5671869
96641.5341645
96563.5643007
96485.6575442
96407.8138439
96330.0331485
96252.3154073
96174.6605692
96097.068584
96019.5394016
95942.072973
95864.6692503
95787.3281876
95710.0497429
95632.8338772
95555.6805609
95478.5897796
95401.5615264
95324.5958599
95247.6928566
95170.852646
95094.0756118
95017.3618679
)
;
    }
    back
    {
        type            calculated;
        value           nonuniform List<scalar> 
64
(
99968.5858826
99888.2058307
99807.8720318
99727.5843643
99647.3428888
99567.1477401
99486.9990456
99406.8969137
99326.8414768
99246.8329582
99166.8717372
99086.9584012
99007.0937809
98927.2789626
98847.5152743
98767.8042436
98688.1475276
98608.5468253
98529.0037825
98449.5199071
98370.0965045
98290.7346422
98211.435144
98132.1986078
98053.0254393
97973.915893
97894.8701121
97815.8881629
97736.9700617
97658.1157941
97579.3253279
97500.5986215
97421.9356277
97343.3362969
97264.8005786
97186.3284215
97107.9197742
97029.5745852
96951.292803
96873.0743763
96794.9192536
96716.8273835
96638.7987145
96560.8331956
96482.9307755
96405.0914029
96327.3150268
96249.6015963
96171.9510605
96094.3633691
96016.8384721
95939.3763206
95861.9768667
95784.6400646
95707.3658725
95630.1542515
95553.0051727
95475.9186219
95398.8945923
95321.9331471
95245.0343592
95168.1983655
95091.4255591
95014.7160253
)
;
    }
}


// ************************************************************************* //
