/*--------------------------------*- C++ -*----------------------------------*\
| =========                 |                                                 |
| \\      /  F ield         | OpenFOAM: The Open Source CFD Toolbox           |
|  \\    /   O peration     | Version:  dev                                   |
|   \\  /    A nd           | Web:      www.OpenFOAM.org                      |
|    \\/     M anipulation  |                                                 |
\*---------------------------------------------------------------------------*/
FoamFile
{
    version     2.0;
    format      ascii;
    class       volScalarField;
    location    "32400";
    object      p_rgh;
}
// * * * * * * * * * * * * * * * * * * * * * * * * * * * * * * * * * * * * * //

dimensions      [1 -1 -2 0 0 0 0];

internalField   nonuniform List<scalar> 
64
(
100010.24618
100010.199798
100010.107521
100009.969132
100009.784111
100009.552118
100009.273051
100008.946742
100008.572548
100008.149029
100007.673768
100007.143298
100006.553157
100005.89811
100005.172535
100004.370978
100003.488764
100002.522564
100001.470751
100000.333465
99999.1124017
99997.8103755
99996.4307741
99994.9770701
99993.4524277
99991.8594748
99990.2002468
99988.476222
99986.6884134
99984.8374926
99982.9238948
99980.9479123
99978.9097488
99976.8095515
99974.647447
99972.4235537
99970.1379702
99967.7908011
99965.3821548
99962.9121256
99960.3808194
99957.7883439
99955.1347901
99952.4202533
99949.6448461
99946.808668
99943.9118034
99940.9543597
99937.9364241
99934.8580719
99931.7193873
99928.5203855
99925.2611232
99921.9415442
99918.5614385
99915.1208893
99911.618867
99908.0548273
99904.4285368
99900.7322592
99896.9719522
99893.1341275
99889.2003345
99885.2240849
)
;

boundaryField
{
    ground
    {
        type            hydrostatic_p_rgh;
        gradient        uniform -0;
        value           uniform 100010.24618;
    }
    top
    {
        type            hydrostatic_p_rgh;
        gradient        uniform -0.633850116769;
        value           uniform 99883.2433033;
    }
    inlet
    {
        type            cyclic;
    }
    outlet
    {
        type            cyclic;
    }
    front
    {
        type            geostrophic_p_rgh;
        gradient        nonuniform List<scalar> 
64
(
0.00145829881824
0.00145745759322
0.00145662076976
0.00145578410916
0.00145494517549
0.00145410363554
0.00145326005756
0.00145241458656
0.00145156623522
0.00145071274565
0.001449850759
0.00144897610345
0.00144808414938
0.00144717025229
0.00144623026393
0.00144526106752
0.0014442610174
0.00144323018909
0.00144217036386
0.00144108472682
0.00143997739902
0.00143885287542
0.00143771551239
0.00143656916489
0.0014354169728
0.0014342613103
0.00143310386411
0.00143194575935
0.0014307876994
0.00142963010105
0.00142847319674
0.00142731711267
0.00142616191298
0.00142500762508
0.00142385426278
0.00142270183464
0.00142155033836
0.00142039977483
0.00141925014679
0.00141810145007
0.00141695368607
0.00141580685705
0.00141466095767
0.00141351598499
0.00141237194326
0.00141122883117
0.00141008664167
0.00140894537684
0.00140780503121
0.00140666559506
0.00140552706256
0.00140438940373
0.00140325260467
0.0014021166138
0.00140098133055
0.00139984675671
0.00139871253344
0.00139757847528
0.00139644450351
0.001395308237
0.00139417155323
0.00139303045534
0.00139187968832
0.00139073496467
)
;
        geostrophicVelocity (8 0 0);
        Omega               (0 0 6.95e-05);
    }
    back
    {
        type            geostrophic_p_rgh;
        gradient        nonuniform List<scalar> 
64
(
-0.00145825629112
-0.00145741511513
-0.0014565783404
-0.00145574172847
-0.00145490284356
-0.00145406135246
-0.0014532178234
-0.0014523724014
-0.00145152409917
-0.00145067065895
-0.0014498087221
-0.00144893411703
-0.00144804221439
-0.00144712836994
-0.00144618843566
-0.00144521929496
-0.00144421930226
-0.00144318853308
-0.00144212876856
-0.00144104319365
-0.00143993592915
-0.00143881146975
-0.00143767417158
-0.00143652788938
-0.00143537576285
-0.00143422016602
-0.00143306278552
-0.00143190474643
-0.00143074675205
-0.00142958921917
-0.00142843238022
-0.00142727636138
-0.0014261212268
-0.00142496700388
-0.00142381370644
-0.00142266134302
-0.00142150991133
-0.00142035941227
-0.00141920984856
-0.00141806121605
-0.00141691351614
-0.00141576675108
-0.00141462091553
-0.00141347600655
-0.0014123320284
-0.00141118897976
-0.00141004685359
-0.00140890565196
-0.00140776536941
-0.00140662599622
-0.00140548752655
-0.00140434993043
-0.00140321319396
-0.00140207726557
-0.00140094204468
-0.00139980753309
-0.00139867337199
-0.00139753937591
-0.00139640546615
-0.0013952692617
-0.00139413263994
-0.00139299160422
-0.00139184089984
-0.00139069623843
)
;
        geostrophicVelocity (8 0 0);
        Omega               (0 0 6.95e-05);
    }
}


// ************************************************************************* //
