/*--------------------------------*- C++ -*----------------------------------*\
| =========                 |                                                 |
| \\      /  F ield         | OpenFOAM: The Open Source CFD Toolbox           |
|  \\    /   O peration     | Version:  dev                                   |
|   \\  /    A nd           | Web:      www.OpenFOAM.org                      |
|    \\/     M anipulation  |                                                 |
\*---------------------------------------------------------------------------*/
FoamFile
{
    version     2.0;
    format      ascii;
    class       surfaceScalarField;
    location    "32400";
    object      phi;
}
// * * * * * * * * * * * * * * * * * * * * * * * * * * * * * * * * * * * * * //

dimensions      [1 0 -1 0 0 0 0];

internalField   nonuniform List<scalar> 
63
(
0.840455523634
1.95561710978
2.69819546829
3.01546128001
3.04469391867
2.93065613625
2.76999989175
2.61238377215
2.47999542812
2.38045567973
2.31662851898
2.28775419109
2.29290308896
2.32785303518
2.38498916756
2.45505974349
2.52705205325
2.59067346901
2.63645138592
2.65767159127
2.6531722378
2.62322496995
2.57088761963
2.50074067526
2.41773545183
2.32596603967
2.22903295606
2.13001833484
2.03006055579
1.93066797219
1.83246268146
1.73613109812
1.64148214832
1.54825308919
1.4576868508
1.36860029958
1.28138634935
1.19665594213
1.11342756078
1.03166110069
0.952470155433
0.875511867926
0.79970696941
0.725534427911
0.653247214854
0.583322495222
0.514681562781
0.448360707611
0.383385386318
0.319987744093
0.258927561343
0.19945820421
0.14294269681
0.0881827026606
0.0354543626308
-0.0131011232734
-0.0587490126491
-0.102323383093
-0.129972513765
-0.165582131594
-0.177489474416
-0.143306005746
-0.20743913576
)
;

boundaryField
{
    ground
    {
        type            calculated;
        value           uniform 0;
    }
    top
    {
        type            calculated;
        value           uniform 0;
    }
    inlet
    {
        type            cyclic;
        value           nonuniform List<scalar> 
64
(
-43367.1541414
-104663.094652
-135057.515851
-144506.383579
-143742.753825
-139732.130241
-135772.573456
-132889.766124
-131073.689814
-130007.171663
-129382.518836
-128988.622806
-128703.949959
-128466.359958
-128246.846941
-128032.859981
-127819.348901
-127604.484111
-127387.777628
-127169.297973
-126949.342831
-126728.288438
-126506.511227
-126284.346093
-126062.065322
-125839.873981
-125617.917029
-125396.290548
-125175.054037
-124954.242228
-124733.873953
-124513.958911
-124294.501469
-124075.50284
-123856.96308
-123638.881797
-123421.257665
-123204.089642
-122987.376848
-122771.117811
-122555.311544
-122339.957135
-122125.053023
-121910.597856
-121696.590903
-121483.03095
-121269.916268
-121057.245827
-120845.017689
-120633.228794
-120421.874387
-120210.942538
-120000.410743
-119790.227485
-119580.286551
-119370.403249
-119160.238235
-118949.352022
-118737.364352
-118524.276414
-118312.18649
-118106.364533
-117917.88642
-117766.073651
)
;
    }
    outlet
    {
        type            cyclic;
        value           nonuniform List<scalar> 
64
(
43367.1541414
104663.094652
135057.515851
144506.383579
143742.753825
139732.130241
135772.573456
132889.766124
131073.689814
130007.171663
129382.518836
128988.622806
128703.949959
128466.359958
128246.846941
128032.859981
127819.348901
127604.484111
127387.777628
127169.297973
126949.342831
126728.288438
126506.511227
126284.346093
126062.065322
125839.873981
125617.917029
125396.290548
125175.054037
124954.242228
124733.873953
124513.958911
124294.501469
124075.50284
123856.96308
123638.881797
123421.257665
123204.089642
122987.376848
122771.117811
122555.311544
122339.957135
122125.053023
121910.597856
121696.590903
121483.03095
121269.916268
121057.245827
120845.017689
120633.228794
120421.874387
120210.942538
120000.410743
119790.227485
119580.286551
119370.403249
119160.238235
118949.352022
118737.364352
118524.276414
118312.18649
118106.364533
117917.88642
117766.073651
)
;
    }
    front
    {
        type            calculated;
        value           nonuniform List<scalar> 
64
(
-36046.4227958
-44488.3950871
-31055.1388212
-16210.9103655
-6403.64107064
-1603.01685591
45.3887267502
206.395480903
-129.721760535
-521.02736828
-831.971443302
-1055.00563202
-1217.54421671
-1346.02911083
-1457.59588388
-1561.43385301
-1661.88832648
-1760.82515032
-1858.98548675
-1956.64702022
-2053.91147469
-2150.8181687
-2247.38508857
-2343.62255115
-2439.53744663
-2535.13462349
-2630.41753534
-2725.38865788
-2820.04981237
-2914.40241934
-3008.44766204
-3102.18659724
-3195.62021223
-3288.74945014
-3381.57523789
-3474.09849646
-3566.3201242
-3658.2410273
-3749.86211095
-3841.18426163
-3932.20837762
-4022.93535534
-4113.36607025
-4203.50139916
-4293.3422331
-4382.88944175
-4472.1438545
-4561.10625554
-4649.77720164
-4738.15660225
-4826.2425416
-4914.02796483
-5001.49257271
-5088.5829109
-5175.16804989
-5260.94796159
-5345.27634935
-5426.86264696
-5503.33564048
-5570.75496801
-5623.45561223
-5654.92895787
-5661.18727019
-5648.2002734
)
;
    }
    back
    {
        type            calculated;
        value           nonuniform List<scalar> 
64
(
36045.3663908
44487.0933384
31054.2291634
16210.4333942
6403.44972384
1602.96521524
-45.3924309435
-206.394503702
129.712984761
521.007250954
831.942328516
1054.97007841
1217.50398459
1345.98519227
1457.54877376
1561.38377993
1661.83539333
1760.7694061
1858.92695908
1956.58572869
2053.84743588
2150.75139792
2247.31560047
2343.55035991
2439.46256609
2535.05706725
2630.33731674
2725.30579016
2819.96430862
2914.31429256
3008.35692517
3102.09326312
3195.52429367
3288.65095989
3381.47418862
3473.99490079
3566.21399471
3658.13237649
3749.75095129
3841.07060552
3932.09223742
4022.81674333
4113.24499868
4203.37788022
4293.21627892
4382.76106441
4472.01306604
4560.97306794
4649.64162683
4738.01865214
4826.10222813
4913.88530011
5001.34756941
5088.43558314
5175.01841546
5260.79604663
5345.12219809
5426.70633964
5503.17732346
5570.59489765
5623.29420221
5654.76680291
5661.02507535
5648.03857121
)
;
    }
}


// ************************************************************************* //
