/*--------------------------------*- C++ -*----------------------------------*\
| =========                 |                                                 |
| \\      /  F ield         | OpenFOAM: The Open Source CFD Toolbox           |
|  \\    /   O peration     | Version:  dev                                   |
|   \\  /    A nd           | Web:      www.OpenFOAM.org                      |
|    \\/     M anipulation  |                                                 |
\*---------------------------------------------------------------------------*/
FoamFile
{
    version     2.0;
    format      ascii;
    class       volScalarField;
    location    "32400";
    object      T;
}
// * * * * * * * * * * * * * * * * * * * * * * * * * * * * * * * * * * * * * //

dimensions      [0 0 0 1 0 0 0];

internalField   nonuniform List<scalar> 
64
(
264.97063408
264.9103937
264.849406197
264.788441452
264.727942893
264.667972048
264.608426387
264.549280274
264.490714425
264.433141656
264.377176581
264.323583652
264.273212851
264.226919207
264.185469636
264.149445063
264.119159602
264.094613972
264.075497166
264.06124043
264.051101833
264.044268441
264.039949942
264.037445289
264.036182326
264.035727662
264.035772883
264.036111921
264.03661574
264.037207725
264.03784504
264.038504337
264.039173667
264.039847838
264.040524161
264.041200917
264.041878389
264.042556272
264.043233919
264.04391196
264.044589994
264.045267461
264.045945212
264.046623658
264.04730186
264.047979925
264.04865903
264.049338646
264.050019659
264.050703759
264.051391909
264.052089619
264.052799394
264.053530851
264.05430288
264.055115134
264.05603537
264.057098851
264.058320793
264.060152369
264.062239688
264.065341386
264.070458039
264.074611517
)
;

boundaryField
{
    ground
    {
        type            fixedValue;
        value           uniform 264.999999456;
    }
    top
    {
        type            fixedGradient;
        gradient        uniform 9.3018e-06;
    }
    inlet
    {
        type            cyclic;
    }
    outlet
    {
        type            cyclic;
    }
    front
    {
        type            zeroGradient;
    }
    back
    {
        type            zeroGradient;
    }
}


// ************************************************************************* //
