/*--------------------------------*- C++ -*----------------------------------*\
| =========                 |                                                 |
| \\      /  F ield         | OpenFOAM: The Open Source CFD Toolbox           |
|  \\    /   O peration     | Version:  dev                                   |
|   \\  /    A nd           | Web:      www.OpenFOAM.org                      |
|    \\/     M anipulation  |                                                 |
\*---------------------------------------------------------------------------*/
FoamFile
{
    version     2.0;
    format      ascii;
    class       volScalarField;
    location    "32400";
    object      theta;
}
// * * * * * * * * * * * * * * * * * * * * * * * * * * * * * * * * * * * * * //

dimensions      [0 0 0 1 0 0 0];

internalField   nonuniform List<scalar> 
64
(
264.993474735
264.994547073
264.994872211
264.995220199
264.99603487
264.997378041
264.999147284
265.001317123
265.004068786
265.007816212
265.01317588
265.02091492
265.031886759
265.046950479
265.066877367
265.092252609
265.123394006
265.160304958
265.202675843
265.249937949
265.301348187
265.356091605
265.413375417
265.472496025
265.532878946
265.594088866
265.655815896
265.717852914
265.780070191
265.842390675
265.904771277
265.967188507
266.029630338
266.09209155
266.154569437
266.21706227
266.279570338
266.342093337
266.404630617
266.467182818
266.52974954
266.592330219
266.654925717
266.717536454
266.780161486
266.842800921
266.905455955
266.968126055
267.030812122
267.093515868
267.156238273
267.218984917
267.281758345
267.344568299
267.407433921
267.470354883
267.533399848
267.596604602
267.659984637
267.72399741
267.788284371
267.853615071
267.921005042
267.987433328
)
;

boundaryField
{
    ground
    {
        type            calculated;
        value           uniform 264.992188289;
    }
    top
    {
        type            calculated;
        value           uniform 268.018581402;
    }
    inlet
    {
        type            cyclic;
    }
    outlet
    {
        type            cyclic;
    }
    front
    {
        type            calculated;
        value           nonuniform List<scalar> 
64
(
264.992363081
264.993436054
264.993761828
264.994110451
264.994925756
264.99626956
264.998039436
265.000209906
265.002962201
265.006710257
265.012070554
265.019810223
265.03078269
265.045847037
265.065774551
265.091150417
265.122292438
265.159204013
265.201575519
265.248838244
265.300249101
265.354993137
265.412277564
265.471398788
265.531782322
265.592992856
265.654720497
265.716758126
265.778976012
265.841297105
265.903678315
265.966096151
266.028538588
266.091000405
266.153478896
266.21597233
266.278481
266.3410046
266.403542479
266.466095279
266.528662598
266.591243874
266.653839968
266.716451299
266.779076924
266.841716953
266.904372578
266.967043269
267.029729925
267.09243426
267.155157252
267.217904484
267.280678497
267.343489036
267.406355241
267.469276786
267.532322333
267.595527668
267.658908282
267.722921635
267.787209173
267.85254045
267.919930997
267.986359857
)
;
    }
    back
    {
        type            calculated;
        value           nonuniform List<scalar> 
64
(
264.994586378
264.99565808
264.995982583
264.996329935
264.997143973
264.99848651
265.000255121
265.002424327
265.00517536
265.008922155
265.014281194
265.022019605
265.032990816
265.04805391
265.067980172
265.093354789
265.124495563
265.161405892
265.203776156
265.251037642
265.302447262
265.357190063
265.414473258
265.473593251
265.533975558
265.595184866
265.656911283
265.718947691
265.781164358
265.843484233
265.905864228
265.968280851
266.030722077
266.093182685
266.155659968
266.218152198
266.280659664
266.343182063
266.405718744
266.468270347
266.530836471
266.593416553
266.656011456
266.718621598
266.781246036
266.843884879
266.906539321
266.969208831
267.031894308
267.094597466
267.157319283
267.22006534
267.282838182
267.345647552
267.40851259
267.471432969
267.534477352
267.597681525
267.66106098
267.725073175
267.789359558
267.854689682
267.922079077
267.988506789
)
;
    }
}


// ************************************************************************* //
