/*--------------------------------*- C++ -*----------------------------------*\
| =========                 |                                                 |
| \\      /  F ield         | OpenFOAM: The Open Source CFD Toolbox           |
|  \\    /   O peration     | Version:  dev                                   |
|   \\  /    A nd           | Web:      www.OpenFOAM.org                      |
|    \\/     M anipulation  |                                                 |
\*---------------------------------------------------------------------------*/
FoamFile
{
    version     2.0;
    format      ascii;
    class       volVectorField;
    location    "32400";
    object      U;
}
// * * * * * * * * * * * * * * * * * * * * * * * * * * * * * * * * * * * * * //

dimensions      [0 1 -1 0 0 0 0];

internalField   nonuniform List<vector> 
64
(
(2.64554726947 2.19892487046 6.85296622089e-08)
(6.38849792037 2.71547345023 2.68346812569e-07)
(8.24846938204 1.89662606879 4.68730118572e-07)
(8.8306192855 0.990615540335 5.62180794493e-07)
(8.78901957725 0.391538935921 5.89523766462e-07)
(8.54873817684 0.0980701460267 5.75092191878e-07)
(8.31131620577 -0.00277858360727 5.46181483346e-07)
(8.13958053748 -0.0126418209628 5.14105136483e-07)
(8.03303674677 0.00794991277457 4.86282851696e-07)
(7.97236118095 0.0319500689132 4.64130978058e-07)
(7.93877293011 0.0510479834269 4.48387318977e-07)
(7.91938137052 0.0647719994454 4.40367560023e-07)
(7.90677074974 0.0747971119946 4.37913891961e-07)
(7.89715858357 0.0827425306285 4.42817536158e-07)
(7.88878852683 0.0896589656175 4.51698579142e-07)
(7.88090698973 0.096110618922 4.64988512359e-07)
(7.87321237616 0.102364714101 4.80364675582e-07)
(7.86559139307 0.108536245738 4.92606119212e-07)
(7.85800390321 0.114671008793 5.05570191838e-07)
(7.8504364014 0.120786167353 5.11858972883e-07)
(7.84288447178 0.126887927183 5.13473051579e-07)
(7.8353465935 0.13297854883 5.11678932199e-07)
(7.82782210299 0.139058916264 5.02940771354e-07)
(7.82031058401 0.145129417589 4.90944582765e-07)
(7.81281171198 0.151190239454 4.77350675515e-07)
(7.80532522493 0.157241473067 4.60012881155e-07)
(7.79785091938 0.163283161394 4.41570646299e-07)
(7.7903886448 0.169315324635 4.23658660834e-07)
(7.78293829368 0.175337975031 4.03884523868e-07)
(7.77549979001 0.18135112442 3.85184544756e-07)
(7.76807307869 0.187354787078 3.66309837473e-07)
(7.76065811754 0.193348979947 3.47037020548e-07)
(7.75325487167 0.199333722277 3.29288603916e-07)
(7.74586331009 0.205309034869 3.11467102132e-07)
(7.73848340375 0.211274939171 2.92578823701e-07)
(7.73111512452 0.217231456943 2.76566356303e-07)
(7.7237584447 0.22317861019 2.59283715039e-07)
(7.7164133368 0.229116421044 2.41609167956e-07)
(7.7090797735 0.235044911362 2.26760647316e-07)
(7.70175772758 0.240964103061 2.10257574772e-07)
(7.69444717192 0.246874018006 1.9407978293e-07)
(7.68714807948 0.252774677881 1.79392310061e-07)
(7.67986042331 0.258666104504 1.64951622325e-07)
(7.67258417647 0.264548319531 1.49907867325e-07)
(7.66531931197 0.270421344285 1.34964349517e-07)
(7.65806580249 0.276285199875 1.22436103252e-07)
(7.65082361903 0.282139906138 1.07709817964e-07)
(7.64359272712 0.287985478408 9.46808628041e-08)
(7.63637307564 0.293821919278 8.33465780455e-08)
(7.62916456531 0.299649191445 6.71674448544e-08)
(7.62196696786 0.305467141308 5.9157989201e-08)
(7.61477973056 0.311275294724 4.63008347715e-08)
(7.60760154071 0.317072333278 2.61834246002e-08)
(7.60042944451 0.322854839634 3.85561580085e-08)
(7.59325726972 0.328614478215 -2.36529305996e-09)
(7.58607328014 0.334332117496 -2.08076561362e-08)
(7.57885781918 0.339966628463 1.25885651476e-07)
(7.57158384538 0.34543570198 -3.36152744325e-07)
(7.56422742049 0.350587895485 4.53129237895e-07)
(7.55680131661 0.3551718182 -3.52390480727e-07)
(7.54942905038 0.358824143341 -3.7730985597e-07)
(7.54246893347 0.361127985839 3.64973654257e-07)
(7.53665827649 0.361826547729 2.14830983002e-06)
(7.5331506613 0.361293641378 -5.90013404666e-06)
)
;

boundaryField
{
    ground
    {
        type            noSlip;
    }
    top
    {
        type            slip;
    }
    inlet
    {
        type            cyclic;
    }
    outlet
    {
        type            cyclic;
    }
    front
    {
        type            zeroGradient;
    }
    back
    {
        type            zeroGradient;
    }
}


// ************************************************************************* //
